<?xml version="1.0"?>
<VTKFile type="UnstructuredGrid"  version="0.1"  >
<UnstructuredGrid>
<Piece  NumberOfPoints="2426" NumberOfCells="4534">
<Points>
<DataArray  type="Float64"  NumberOfComponents="3"  format="ascii">0 0.41 0  0 0 0  2.2 0 0  2.2 0.41 0  0.2404508497187474 0.2293892626146237 0  0.25 0.2 0  0.2404508497187474 0.1706107373853764 0  0.2154508497187474 0.1524471741852423 0  0.1845491502812526 0.1524471741852423 0  0.1595491502812526 0.1706107373853764 0  0.15 0.2 0  0.1595491502812526 0.2293892626146237 0  0.1845491502812527 0.2475528258147577 0  0.2154508497187474 0.2475528258147577 0  0.5404508497187474 0.2293892626146237 0  0.55 0.2 0  0.5404508497187474 0.1706107373853764 0  0.5154508497187473 0.1524471741852423 0  0.4845491502812526 0.1524471741852423 0  0.4595491502812526 0.1706107373853764 0  0.45 0.2 0  0.4595491502812526 0.2293892626146237 0  0.4845491502812526 0.2475528258147577 0  0.5154508497187473 0.2475528258147577 0  1.1 0 0  0 0.205 0  1.1 0.41 0  0.55 0 0  0.55 0.41 0  0.275 0 0  0.275 0.41 0  1.65 0.41 0  1.65 0 0  1.375 0 0  1.375 0.41 0  1.925 0 0  1.925 0.41 0  0.8250000000000001 0.41 0  0.8250000000000001 0 0  1.5125 0.205 0  1.7875 0.205 0  0.9625000000000001 0.205 0  1.2375 0.205 0  2.2 0.205 0  0.7560964076246335 0.2151713709677419 0  1.99375 0.2152743902439024 0  2.0625 0 0  0.6875 0 0  2.0625 0.41 0  2.2 0.3075 0  0.6875 0.41 0  1.7875 0.41 0  1.375 0.1486128048780488 0  1.5125 0 0  1.7875 0 0  1.5125 0.41 0  0.9625000000000001 0 0  0.9625000000000001 0.41 0  0.4125 0 0  0.1375 0 0  0.1375 0.41 0  0.4125 0.41 0  1.2375 0 0  1.1 0.1486128048780487 0  1.2375 0.41 0  1.65 0.1486128048780487 0  1.126715909090909 0.2793064024390244 0  1.676715909090909 0.2793064024390244 0  1.348284090909091 0.2793064024390244 0  0.34375 0.3032389320646208 0  1.894702181800738 0.1282910975492754 0  2.092797818199262 0.1282910975492754 0  1.85625 0.3075 0  0.8630851210521902 0.286932093388664 0  0.89375 0.1025 0  0.35 0.1090282786671641 0  0 0.3075 0  0 0.1025 0  0.6526217841291382 0.288229645480046 0  0.7562500000000001 0.09660248895515888 0  0.6568633732316684 0.1557582854763441 0  2.099172119769978 0.25625 0  1.002356446954348 0.1010393851523063 0  1.99375 0.08395950269330846 0  1.459960956013612 0.3075 0  1.569025960719943 0.2986889805672169 0  1.03125 0.3278689922742084 0  0.75625 0.3247156761655783 0  1.959375 0.3126371951219512 0  1.749222215368287 0.1025 0  1.275777784631713 0.1025 0  2.2 0.1025 0  1.225938124459196 0.3075 0  1.550777784631713 0.1025 0  1.44375 0.07430640243902442 0  1.16875 0.07430640243902437 0  0.3528655045338512 0.2063263890916129 0  0.5890337614812103 0.08775733857679162 0  0.8504912436891263 0.190072835691683 0  1.899250267340833 0.2229966846119207 0  0.1020898364287272 0.3140258291809757 0  1.766482954545455 0.2934032012195123 0  1.051658316544432 0.2265720188842194 0  0.2 0.3400647632937836 0  1.421109702350723 0.2261157654379721 0  0.4812500000000001 0.41 0  0.4324401666997539 0.3216425986889796 0  0.098916018031319 0.09171660955420841 0  0.9508742791313441 0.2921736960864468 0  2.13125 0 0  2.118919042110979 0.3422084711244843 0  1.30625 0.41 0  0.20625 0 0  1.597888256393107 0.2173787389261347 0  0.4812500000000001 0 0  0.4324082967851086 0.08384041677422771 0  1.829299675393195 0.07400700849299596 0  0.568219932524165 0.3212274660843853 0  1.71875 0.41 0  0.268005226542646 0.08512186835670006 0  1.16875 0.41 0  2.038220665644273 0.332420740103091 0  0.6678017527842831 0.07701763866051195 0  0.89375 0.41 0  0.5111435174287687 0.07335351331957608 0  0.176193934632343 0.0734896648625108 0  0.07390688010811153 0.1697064032433452 0  0.05452951551825875 0.25625 0  0.61875 0.41 0  1.452769549894695 0.1548122580621249 0  1.369219062229598 0.07430640243902442 0  1.30625 0 0  1.720943423819132 0.1714577452753128 0  1.157188124459196 0.205 0  1.094219062229598 0.07430640243902437 0  1.304056576180868 0.1714577452753128 0  1.67579304192913 0.07430640243902437 0  0.2672907219039591 0.3037570723459566 0  1.209670467133757 0.1362100266964769 0  1.58125 0 0  1.03125 0 0  0.06875000000000001 0.41 0  0 0.35875 0  1.58125 0.41 0  1.631724228912893 0.3381867502687533 0  0.8240147050827157 0.1225233169495944 0  1.825608881788174 0.14499488549201 0  1.85625 0 0  1.44375 0 0  1.44375 0.41 0  1.85625 0.41 0  2.13125 0.41 0  0.7562500000000001 0.41 0  0.7562500000000001 0 0  0.89375 0 0  0.34375 0 0  0.34375 0.41 0  0.20625 0.41 0  0.06875000000000001 0 0  1.16875 0 0  1.03125 0.41 0  0.61875 0 0  1.71875 0 0  1.99375 0 0  1.99375 0.41 0  0.3972301426712326 0.2593842555611471 0  1.340625 0.3489494290853124 0  1.134375 0.3489494290853123 0  1.700180620188976 0.3438659752031281 0  0.5003922072260507 0.341765274319271 0  0.6212513815748759 0.2209216137134851 0  0.6885607720119526 0.215393731583638 0  1.033412357328477 0.1612902025713047 0  2.135782184673599 0.07126652247502523 0  1.668441847249787 0.2129203728327609 0  1.295782514339747 0.2378437748815763 0  1.409375 0.3520314716057996 0  2.129248544730567 0.1906135162504124 0  2.060771381434487 0.1989445750470348 0  2.013252586573865 0.1496169464686054 0  1.942766402200229 0.1734448904596831 0  1.895522487186454 0.06076163953489683 0  2.069553871656643 0.06605731020975725 0  0.9281250000000001 0.3539050257418612 0  1.274680914880868 0.3520219391081363 0  0.3030138498135347 0.2488370856812789 0  0.8223773249563684 0.341761430177996 0  0.9018164060227267 0.2326477848736739 0  0.8143027982392851 0.2440265179987191 0  0.7225087161029304 0.2699907246386231 0  1.614713220494657 0.09473434380863296 0  0.378125 0.3566194660323104 0  0.309375 0.3566194660323104 0  1.72990325744076 0.2380068107952482 0  0.6915936999299305 0.3429472631234433 0  0.6268087624932918 0.3466455500035671 0  1.356580098625191 0.2120393231351682 0  0.3060160055995138 0.1590148921620778 0  0.3954648733249218 0.156380553890791 0  2.034370752044885 0.2668681600792073 0  1.51768709249349 0.3426260931494756 0  1.561883724969884 0.1650446847858835 0  1.197344062229598 0.2523725417393646 0  0.9281250000000001 0.05124999999999999 0  1.804085235518364 0.3468178408964637 0  1.817887819205233 0.2589243285818559 0  0.9107805776841645 0.1653834539923287 0  1.905897727272727 0.3485060975609756 0  0 0.05125 0  0.844212276491354 0.0614201194265309 0  0.378125 0.05244637078450034 0  1.008571329007178 0.2705955969954818 0  0.7724048032149464 0.1559079561351474 0  0.7203054377831548 0.04941826955193545 0  1.192836486056382 0.3562350748565544 0  0.5967108020713719 0.1479294686523888 0  1.28257088594801 0.2944411014911587 0  0.7041890234548132 0.1222025174424443 0  1.474860187679412 0.2504218616229368 0  1.406767003493824 0.2829282258560709 0  0.3201325899091991 0.05890121548989159 0  0.5979220912872258 0.2727591995766724 0  1.845656689180403 0.1998310418452388 0  2.144958525570388 0.2909790873294231 0  2.2 0.15375 0  1.57794966442982 0.3540357145964566 0  0.9483181579620558 0.1214693369582054 0  0.0496154796471391 0.333125 0  1.508991196088596 0.1421783375065625 0  0.09776612425612034 0.2204896805326566 0  1.50436820029908 0.06143401634903343 0  1.223857000523521 0.0823554862453532 0  0.2531953886959507 0.3582003209055908 0  1.153316824384777 0.1289850171317837 0  2.148922302309752 0.1258841779285271 0  1.621993280276081 0.2841214267927899 0  1.550118654119087 0.2461998729100966 0  1.327182649291491 0.1216967252533594 0  1.753125 0.04556020050186112 0  1.271875 0.04556020050186116 0  0.9824282234771738 0.05051969257615314 0  1.039510847866381 0.05683351822678641 0  1.94956388244759 0.1180512551534177 0  1.949997712993411 0.04965831614304109 0  1.771961817615021 0.1530278789497521 0  1.909246823951428 0.2812757146784527 0  1.101974016627944 0.2038045618205013 0  0.7906250000000001 0.0444674049654372 0  1.948575539857022 0.2445328248721197 0  1.697271520964565 0.1233917627620729 0  1.065625 0.3689344961371042 0  1.085849084308977 0.3170853572226867 0  0.9840604787624379 0.3582077516409966 0  1.577403511714593 0.05463601888079143 0  0.05622663515370135 0.05493816910862376 0  0.8762396958822678 0.3392249777398821 0  1.751571320346033 0.3651102912045228 0  1.055327852410105 0.111864799513911 0  0.1583785085108421 0.2994699345738728 0  0.1455283439499995 0.3542795598723423 0  2.2 0.35875 0  0.225705107073232 0.05084786997482401 0  0.1455852234589313 0.1166494778469164 0  1.466879772203159 0.3611261772912453 0  1.990280163552011 0.3564754268533217 0  1.17471064520912 0.2990917256188288 0  0.7221925551074015 0.1739659241003985 0  0 0.25625 0  2.2 0.25625 0  2.2 0.05125 0  0 0.15375 0  1.853978576207987 0.35875 0  0.21965520498276 0.1015543880164422 0  1.515638456102889 0.2882700110184686 0  0.09048297387599738 0.3637717362208066 0  2.150453692751374 0.2387066338105111 0  1.323782677156475 0.04897634338873398 0  1.409375 0.03715320121951221 0  1.406484531114799 0.1087852750766809 0  1.134375 0.03715320121951218 0  1.627401732573545 0.04552157221025036 0  0.446875 0.3713289093361426 0  2.045405893604797 0.1105340662939892 0  1.255408269734577 0.1577307500159216 0  2.028125 0.03707597992059326 0  0.04420832937638274 0.128125 0  0.5817551710628505 0.3702615006034757 0  0.1197849154434487 0.2663398672460083 0  1.248258025468107 0.2565907092181813 0  0.1300647302703173 0.0508462728378621 0  0.7738123537510222 0.2761231499240648 0  1.203125 0.0366132337404304 0  0.5444207041612499 0.111205399508622 0  0.8016457771828226 0.1964238426015905 0  2.072662025974815 0.2975086504196739 0  0.4019040438866802 0.2103993403217561 0  0.4677372330974851 0.04827477407630658 0  0.8677218578847617 0.1432970430140788 0  1.058011122005847 0.2758866204059919 0  0.4429405887974043 0.2746184809910084 0  0.5843750000000001 0.03726989681835222 0  0.6318596133730142 0.1128692182767254 0  0.4862628454464408 0.2957029785303028 0  0.7805186758662764 0.3673578380827891 0  1.887722846421017 0.1760882698830035 0  0.3498893058880703 0.256189258793856 0  1.472640588990488 0.1118278026240017 0  1.865937103925594 0.2604137786483804 0
[...]
<PointData  Scalars="f_43"> 
<DataArray  type="Float64"  Name="f_43"  format="ascii">4.4196400379191603e-01  4.7276805064744376e-01  9.2578833864189932e-10  1.2231018541536550e-09  -3.4245716393292908e-01  -3.0603224626758474e-01  -3.2864869536863200e-01  -4.9610180896485151e-01  -9.1327291027574942e-01  8.8243870549842951e-01  2.0160198191303316e+00  4.1929399969526021e-01  -1.1394015016771479e+00  -4.8954888438039490e-01  -2.6044176330139512e-01  -2.3601413798202794e-01  -2.7116688999228722e-01  -4.4130473923851049e-01  -1.1315861884168038e-01  -9.0913050063989906e-02  -2.7301130838463811e-01  -1.1923904516666793e-01  -5.1512134031509269e-02  -5.0031341438576404e-01  -1.9129080613972010e-03  7.8421894519360202e-01  1.4366258973694116e-02  -1.8416617568990029e-01  -1.7744215187906845e-01  1.9968011987722651e-02  4.0122046329172628e-02  2.4284826903394341e-02  3.3215191192662856e-02  3.4269576855194953e-02  2.2894090816303291e-02  1.5483708411096017e-02  2.3453343160959015e-02  -7.2051895787681966e-02  -6.6456456623024074e-02  3.1831446907130287e-02  2.4110935243882716e-02  3.1714137508710043e-02  2.5422287123182820e-02  2.9426788722638338e-09  -4.0808393622589589e-02  1.3391461245345205e-02  8.8411065414548858e-03  -1.3461969094489110e-01  6.7193900472880758e-03  1.9543660156045138e-09  -1.2772603365238266e-01  2.5239777712453667e-02  3.4022339564494485e-02  2.6300056881148389e-02  2.4464225845925995e-02  3.8715196735274758e-02  -1.3237028328089980e-02  -3.2528019688075081e-02  -1.7404128959644896e-01  3.8953075872711834e-01  3.6671361898612503e-01  -1.5710002880824117e-01  2.8517788277584659e-02  1.4156553713059777e-02  1.7690796029674511e-02  3.2285023924364865e-02  2.8571417532614725e-02  2.1434129282911937e-02  2.1538258663166762e-02  -2.3678650281046454e-01  1.5654870762574189e-02  6.1626182296237227e-03  2.7517592051336283e-02  -2.4309127813043594e-02  -5.3633695076950039e-03  -2.7555486346889169e-01  5.3857337896174640e-01  5.7268262611424181e-01  -1.6582622243650069e-01  -8.2856004744166142e-02  -1.9149808975702870e-01  -1.0192449745157284e-03  4.3503984695901620e-03  1.3346537042552550e-02  3.7636768157717999e-02  3.4934144543185899e-02  -1.1735050647251812e-03  -8.5059275485407926e-02  2.1022167852997105e-02  2.8782042979297127e-02  3.6362614504940063e-02  -1.8905491031923485e-09  2.0456983194697156e-02  2.6937585119187580e-02  2.6436401072642012e-02  9.9162875592552317e-03  -3.3519575527585488e-01  -2.0273972512196323e-01  2.6107351320103847e-02  2.1597063262603668e-02  4.8201282330014089e-01  2.2746213495175388e-02  3.7820206506424522e-02  1.7035483027428680e-01  3.5099314117451298e-02  -1.7916341247908948e-01  -1.9456456310758805e-01  5.1129887965666043e-01  -7.4721310255488919e-03  4.1749444969273351e-03  -4.6764219211735408e-05  1.5098380616466716e-02  2.1733450273612417e-01  2.9742289375279299e-02  -1.8896452626482740e-01  -1.9453343962871025e-01  2.0498283049638764e-02  -2.0273312075515831e-01  2.1747993892639796e-02  -1.2930419308046243e-01  2.1933856720533728e-02  9.6315202306269682e-03  -1.4747797802617338e-01  -5.3109522740572242e-02  -2.0405422604684345e-01  2.3396071108666974e-01  9.1677128272351249e-01  7.3915939975346256e-01  -1.5757378359287311e-01  2.6829874182418011e-02  3.5975637534660349e-02  3.7006627462996440e-02  2.9243270583059127e-02  2.7510260573016268e-02  -2.7349523473588757e-03  3.5099639927664385e-02  3.3630752906050311e-02  -1.6812652979914872e-01  2.9047302379344140e-02  3.0718502461825031e-02  -6.3849886979362820e-03  4.2979824384168691e-01  4.5413869723056716e-01  3.2697638086724108e-02  2.5324062662079282e-02  -1.5367235450693600e-02  2.0904778510270748e-02  1.8825864401799324e-02  2.7699743159445359e-02  3.4693193377294498e-02  2.7115746811632677e-02  1.2145734186717690e-03  -9.7003698663060758e-02  -1.0112594463451914e-01  -3.4182331161650412e-02  -1.1788861990420217e-01  -8.8290025616291859e-02  2.1654525882626763e-01  4.5844926210171516e-01  1.1257324672683604e-02  -7.0953850907217409e-03  -1.6229540426072250e-01  3.0352697334773211e-02  1.3034285083616841e-02  1.5854479001209787e-02  -3.1890755655313996e-01  1.5217996326209586e-02  2.3321643760701137e-02  1.9408294384635240e-02  -1.9241500305892908e-01  -2.2189984305017763e-01  -1.3090421249555365e-01  1.7736337429586649e-02  3.6132956585541521e-03  2.3271851476979778e-02  1.8185535140720233e-02  2.8614129833003862e-02  -2.3328317038125981e-03  3.1441416788702777e-03  1.2070693479345987e-02  1.4224295547170463e-02  1.5836439675027160e-02  8.2023219709703183e-03  -4.2063134904274532e-02  1.3669352404157290e-02  -3.3490048152811086e-01  -6.4301714307983912e-02  1.5660232152319303e-02  -1.2029383544665304e-02  -8.9284065197068413e-02  3.2380390056213751e-02  -1.4805875141600292e-01  -6.5315379045039049e-02  2.1539264246102134e-02  -1.2321375515084043e-01  -1.5863379517702733e-01  2.7362743177115626e-02  -3.2993642366945364e-01  -3.5075413903739289e-01  8.5034778331722922e-03  4.0556525241719668e-02  2.8976302939130477e-02  2.2847186746836914e-02  -1.8019267949558770e-02  2.6139037246963381e-02  2.6556360641739857e-02  3.8778430471374123e-02  2.5772328012232493e-02  4.8569448409022908e-01  -5.0154677609459949e-02  -1.6962711819388432e-01  2.0842550971830909e-02  -3.4373197956248575e-02  -1.1534257366535189e-01  2.2765052161080421e-02  -2.3638164127380903e-01  1.5528756467124654e-02  -1.2465530965350474e-01  3.8513757874788952e-02  3.0558509166937579e-02  -1.1265643375284996e-01  -2.2892776662530026e-01  2.1355886280224008e-02  -1.8751338137887028e-03  -2.5692790038874719e-09  3.3800006827210308e-02  1.3424634042449266e-02  4.7755718342264158e-01  2.6005207946166876e-02  1.1362840970915220e+00  2.4113644749980831e-02  2.6164760862647084e-02  5.0113538463157553e-02  1.7442867051748981e-02  3.0090493314596902e-03  2.6934521641593896e-02  3.5528957149810241e-02  3.7152630333543192e-02  2.7744693928787100e-02  3.5453650593587710e-02  -7.1746284053557201e-03  -4.8234310915016261e-03  1.4113156756770490e-02  1.4505910385002931e-02  2.7145984336593831e-02  2.4845751233560951e-02  2.7688747437471014e-02  -8.0954397539248490e-02  2.1244860702961905e-02  3.1762188623911336e-02  5.5803361296271874e-03  1.7950741283130199e-02  -2.4300913532309492e-02  3.0030635424280350e-02  4.7886790243839439e-01  -5.0399737943576751e-02  2.2216416978833985e-02  5.0388125332427314e-03  2.4963802502594054e-01  3.4109023237102221e-01  -6.2850604412575909e-09  1.1909942478602688e-01  3.5736764816075872e-01  3.8240333135619337e-02  1.6659596642474524e-02  2.6131863763893957e-02  -9.7804536738369682e-02  6.8985636252995042e-01  1.9543660156045138e-09  1.1636565270452800e-09  7.1623050393281051e-01  2.7732884174293208e-02  -1.1991058367920637e-01  3.8854154528227360e-02  4.2115241767144573e-01  -1.6862759257159745e-03  3.8761819411526399e-02  3.0618764616554595e-02  3.1431931557219572e-02  1.9950148651287402e-03  3.3338193200278747e-02  -1.7269275407055171e-01  1.0076745357620454e-02  3.4997182786674942e-02  1.1273186734844122e-02  6.5949004492810870e-01  -1.7031473838797748e-01  6.8545489051039998e-01  1.7414060923419190e-02  3.9507828779550741e-01  -5.1461883804790005e-02  1.9645213169882630e-02  -2.5923785060689425e-01  -1.4445379892999602e-03  4.0743543900454452e-03  -3.1310458162373295e-01  -1.8673577252530030e-01  2.3051157672136269e-02  2.5921730803005062e-02  -1.9311870381473339e-01  -1.7509174042716827e-01  -1.9364301539239057e-01  -2.0278666192035458e-01  -8.4003981677680736e-02  1.5330728959779785e-02  -3.4036160956152034e-01  2.5439514555380929e-02  2.6278686687465764e-02  2.0362710393058123e-02  3.2796330009238046e-02  -1.1124254791315989e-01  2.1481169326420066e-02  -1.1189071518878847e-01  -1.5831674060142173e-01  -1.0370005377972381e-01  3.1904871581163716e-02  -2.0719780453825859e-01  -1.8059470895792989e-01  2.0714006326664446e-02  -2.7071062460280543e-01  -2.1993371969030387e-01  2.4591891987969239e-02  5.7122032854933866e-03  3.2281003294342081e-02  -3.9677943312830304e-02  1.1145322684420596e-02  -3.2668673312634261e-01  -3.3766871711625057e-01  3.1480714349777554e-02  -3.3981320763815631e-01  9.2427363066665702e-01  2.6000521808059365e-02  8.5933911675402397e-01  1.6101202656033032e-02  1.8210950602640407e-03  -2.6227347905070305e-02  -9.9282574463690088e-04  3.2785683286964819e-03  4.6537471967172117e-03  -8.5377451935005361e-03  2.3500610687935929e-02  2.8174812713063511e-02  -1.3759541891929372e-01  -2.6980697618900024e-01  2.4874170306516643e-02  -6.2268561615376777e-02  1.4995721471855185e-02  3.0780975215310098e-02  2.8228253077854194e-02  2.6080421964472505e-02  2.9352074049089991e-02  -1.8100769843099840e-01  -1.7916239689623836e-01  3.6629480508612415e-02  3.2411835370852550e-02  3.1418412237916908e-02  2.4020593231293508e-03  4.7061037033377981e-05  4.3947118291487347e-01  -2.8206136586436015e-01  -1.8270124783610214e-02  2.4215003146303728e-02  2.3560289464504253e-02  1.7218432390810015e-02  -6.0327281826700031e-02  2.8193194375057802e-02  2.1713465383016481e-02  -3.0963932425226326e-02  3.6170800862011271e-02  2.6735697582647631e-02  2.0068060231411788e-02  3.1336103219615263e-01  2.2261043023748317e-02  -1.8918376841560205e-01  -1.8727524812048577e-01  -4.7734302261496948e-03  3.0166525649701831e-01  8.6977624267440198e-03  -9.8204322256718081e-03  3.1083487396061819e-02  -2.2884713115479929e-01  1.7936848635295335e-02  3.4246618389110564e-03  2.5342017830355019e-02  3.0672732827439073e-02  -2.4907410638752667e-01  -1.3717555402956050e-01  1.8399079832535959e-02  4.2909261700135844e-03  2.9846617782190905e-02  2.0469392799793918e-02  3.3521502007379043e-02  6.9040205168104910e-04  4.3445786439596995e-01  1.4048194333550847e-02  -1.3442281609536719e-01  -1.8849028422828618e-01  -1.0479597654350585e-01  1.3395445090407318e-02  -3.1987185443700855e-01  2.5958732863862462e-02  -4.9590830426973882e-02  1.8357569336863024e-02  1.6816181827798076e-02  1.4405586772930599e-02  -4.2576751396950305e-03  2.4543078301923420e-02  3.1516542629311251e-02  3.3375743263597990e-02  3.3254092726447665e-02  4.7009106741923445e-01  4.4231790343784888e-01  9.9575487396241710e-03  3.0177511220878802e-02  -6.2784709804264163e-02  -5.5308298125874816e-02  1.3211230253266964e-02  3.2899070368629340e-03  5.7441748573514539e-01  -2.2334758121359030e-01  7.1113466851948892e-01  -1.5859991313473287e-01  2.5721832693623790e-02  -7.9647111701705409e-02  -2.7214635387638353e-02  -2.4028100675337297e-01  2.6334577014753686e-02  7.8041769646593506e-01  -1.6739303409491257e-01  1.1153489808676871e-02  3.6304103563538664e-02  2.7189582278987706e-01  3.8238673864765184e-02  6.1491182901526653e-01  2.6422296512923400e-02  -1.1263130181633862e-01  2.3894468617259149e-02  2.5219538601514505e-02  3.0015211716229541e-02  3.6567645934333565e-02  3.5185789659951359e-02  3.6107365230314423e-02  5.1926680571817724e-03  3.1617032695590505e-02  3.6087018409904525e-02  -1.8065515661781570e-01  1.3834415449340057e-02  -1.9043466691080341e-01  -1.4980547010558054e-01  1.9656918530980616e-02  3.2611830958805633e-02  5.4699243199168301e-01  3.0374807830015966e-02  2.0845093330103894e-02  2.5147085296993849e-01  4.5364410439558628e-01  -2.0032622705570546e-02  5.1604005266879971e-01  2.6494692315541510e-02  -4.4812498572167188e-02  3.0089909816164263e-02  -1.8858656484089528e-01  3.8550223513016471e-02  2.1455388137980487e-02  -1.6524711981857265e-01  -5.1819705280514418e-02  1.1246310832788338e-03  8.1888979846012552e-03  3.9397917034405594e-02  -2.8713976006309146e-04  -2.2129817342066108e-02  -3.6633659668393070e-03  -2.0986534601742210e-03  2.3124404956287190e-02  2.6509383504114498e-02  -3.2589531889680678e-01  3.0908662497158148e-02  1.6563276927097567e-02  2.2580528937981366e-03  4.3161388019285346e-03  1.5728455512138688e-02  1.8442993450655601e-03  2.5758668485554095e-02  1.8050445002097376e-02  2.4011218089891932e-02  1.3496766276542687e-02  -1.8503340719646422e-01  -1.7934976825580151e-01  1.1551714595032969e-01  -6.5441625876267742e-02  -9.9614682774126009e-02  -1.8138413484780849e-01  -1.5811024319802386e-01  1.3808691424255073e+00  -6.6398961434923172e-03  1.7363472364152607e-01  2.2971900306248565e-02  1.9995161740039385e-02  1.3831549083487507e-02  1.7954125166299913e-02  2.1643614971635701e-02  2.6797052301246148e-02  3.0743838685514363e-02  3.7712775036044233e-03  2.0357380556329473e-02  -3.0906811944369478e-01  -1.8490913793188896e-01  1.7846577801702627e-02  -3.2119396004577727e-01  -2.4974487957970362e-01  2.8735191448333017e-02  -2.7192523419228026e-01  -3.3487586077444637e-01  2.9073288941690648e-02  2.2090175791984981e-02  1.2402158672883551e-02  9.2950274054532066e-03  2.0568255019611497e-02  1.5566995031921663e-02  -2.0911213669610051e-01  1.8314434974771553e-02  2.7492624483196323e-02  3.3756281460905764e-02  1.0183763296728609e-02  3.6777287421201905e-02  2.0883436417133386e-03  6.4265241104928634e-03  3.0697913477458372e-02  3.8223720340879071e-02  2.3162999015016148e-02  4.9516379889480867e-03  2.7594226634682587e-02  -1.1776538055571996e-01  -2.1939950711366871e-02  -4.3268523395983895e-02  2.9231197638734382e-02  3.3792213941904663e-03  3.3056583294894192e-04  -4.9064545410068532e-03  -1.7162547474312875e-01  -1.5241599370529138e-01  -1.2910434316841857e-01  4.0678227313335213e-01  1.2783085617443113e-01  -8.3580195268399229e-02  -1.7630011633655765e-01  -1.6994197045643580e-01  -8.3853216451741625e-02  -3.5166005133824632e-02  -9.8874132882234719e-02  -1.4130351727306786e-01  -1.4342600658368193e-01  2.0244467578719363e-02  3.2560219976394890e-02  1.4407047719967156e-02  3.4407541000372827e-02  1.1168803984742948e-02  1.9977137133120885e-02  -8.6944423488948090e-03  2.0894083620206345e-02  -1.3220212725650113e-01  1.2547726112280418e-02  2.3672555582720398e-02  3.1665161593334150e-02  2.8101348767991457e-02  2.7972510646961497e-02  2.4588331257080032e-02  -7.3359924505329382e-02  -4.6791027238924685e-02  -3.0062766122332807e-01  -3.2232958741770895e-01  -1.4486449365186385e-01  1.0450007839909780e-02  2.2697175449073365e-02  1.8504501159239472e-02  3.3535259522231749e-02  4.0989294682326310e-01  2.5650554310847035e-02  3.9083603882640996e-02  4.0570656320857754e-02  -8.3243982804557484e-02  1.5857423594646577e-02  3.0465041022364131e-01  3.5081967964123065e-02  3.1859256738867317e-02  2.0759049631677521e-02  2.6610200127018240e-02  1.2132413533286895e-02  -1.1971287268071144e-01  2.2576286930207225e-02  -5.1317701494004414e-02  2.1047357003012301e-02  2.1194337515956774e-02  2.4475968367437189e-02  -1.4364182358378963e-01  2.4226123079533615e-02  3.9099408316027977e-02  7.5431943189694273e-01  -1.7680054770383008e-01  -2.3062988842726573e-03  3.1668484024057274e-02  -2.4755537711012451e-01  -4.5682176003160171e-02  8.9027020911654053e-03  6.5645816195643450e-03  3.3765929683840956e-02  8.1791375224717233e-01  1.6804616016211769e-02  2.6550287997255770e-02  1.6402309817257994e-02  1.4551326823675118e-02  3.8504565429018817e-01  2.3803148758868489e-03  3.4632532297878516e-01  -3.5411656041294780e-02  9.2993355688062908e-03  -3.3652194900357829e-01  -3.4567750657972135e-01  2.5983668157843264e-02  -3.3860710033086222e-01  -9.1257627931898982e-03  2.7678547904487167e-02  1.9653158004575632e-02  2.5605897799613957e-02  1.4099893089331619e-02  2.0660761781010003e-02  -9.0217751592339037e-04  7.4519188631512094e-03  -1.6650199585631489e-02  2.9285087751291496e-02  -1.7871125776079291e-01  2.9840634367748666e-02  3.3950204895652120e-02  2.5034629075057203e-02  -6.5823164645108803e-02  -9.7746298172256080e-02  -7.8956997039826157e-02  -5.2984117771183482e-02  3.0871053623553281e-02  3.5105527380045354e-02  -2.4519034158910613e-01  -1.5179506930858699e-01  -1.7746246999688470e-01  3.0905612775429178e-02  5.9939555336651795e-01  2.7703968758590467e-02  1.1655608020177163e-02  -9.0783499958782654e-02  3.8139010162788575e-02  -2.1846259053096720e-01  2.6841385209145942e-02  -3.2699017146225384e-01  1.1446266200035317e-02  -1.3294490003114384e-01  -1.6243377094747954e-01  -1.9239019870380150e-01  2.2819602079459558e-02  3.1586642055936906e-02  2.9138896621452436e-02  2.5171610246257095e-02  2.3809193401764139e-02  -8.3891345367771736e-02  1.1395957050486805e+00  2.2727290450895256e-02  -1.7116036062113694e-02  -3.0103445848032950e-01  1.8799624117080072e-02  2.0139576032754319e-02  2.9525269338837729e-02  2.4276165523859559e-02  2.5231061625520437e-02  2.6828214745655572e-02  -1.8658759465024406e-03  2.5445028200161101e-02  1.8389139369040249e-02  -1.6396890148277495e-02  -2.9737641180690829e-02  4.7316936428172246e-01  4.7142803687441159e-01  2.7810206900406750e-02  -2.5938719401109411e-01  1.5188645231342269e-02  6.9866697437680073e-03  3.5087184058464095e-02  6.3721244863254294e-03  1.2769561332827454e-02  3.8244202240820674e-02  6.1958162820599549e-01  -2.9849781238112907e-02  3.8050839895793574e-02  8.7223249608815098e-02  2.6104031228843511e-01  -1.0544149766027669e-01  1.3663336591789971e-02  1.7383746959505762e-02  -2.3375287997611940e-01  -2.1675245866695822e-01  -3.3059076268686988e-01  3.3695151986376813e-02  2.7122858362317748e-02  -2.4929093499990013e-01  4.5583392053947835e-01  7.6781654718134695e-01  5.8247438121194752e-03  -1.3475092864176219e-01  2.0787770644657779e-02  2.0253660673283068e-02  3.2460219846248139e-02  2.6397053693018081e-02  2.9426788722638338e-09  -1.9037088877196257e-01  2.3358865050300989e-02  2.1458710027235789e-03  -1.9746238537386451e-01  -1.8668207619631719e-01  3.7299068506371873e-03  -1.2840745237223838e-01  4.0636931813029603e-01  3.9122095926103556e-01  2.5168307380734185e-02  3.1574618841558544e-02  3.7258766083331701e-02  3.8307960739165092e-02  3.7243381244358026e-02  2.7616914460804574e-02  2.7819724973002769e-02  -1.6399355037857988e-01  2.6771605226710047e-02  3.5272599951966174e-02  1.2791109290524936e-02  7.6874623342998750e-03  -6.4428062450928358e-02  -2.0560077623103659e-01  1.9487320487142214e-02  -1.0983788661321252e-01  6.0782896346258282e-02  -1.8905491031923485e-09  1.7884796601082362e-02  1.7080308339571346e-02  1.4493817660738175e-02  -1.3950459294526177e-01  3.0051041157878742e-02  -2.7444830003540395e-03  2.2893491801463550e-02  2.7000170822709040e-02  1.0871199662943590e-02  6.5545349472883666e-03  1.4045350079220002e-02  2.4472328696249697e-04  -2.6023799295886514e-03  -3.2788694865871645e-03  2.5508602642256496e-02  2.4541663742646703e-02  -2.6595520179295635e-02  4.1077492119845832e-01  -5.6303716685682983e-03  2.3902147385359850e-02  -4.0060378766621038e-02  -1.6286956538301787e-03  -1.5140516073109222e-03  -1.3834823502060587e-03  -1.9124423214226341e-01  2.4549594205168238e-02  1.7581303481313246e-02  2.8065240623812316e-02  -2.1370481206258204e-01  3.7457575642805836e-02  2.9077639505925432e-02  2.5715348154185171e-02  -1.7765623482684822e-01  -1.8965933294888945e-01  3.0652608175941527e-02  -1.9834076907663248e-01  -2.3207785535466036e-01  -2.2538481201682406e-01  2.2716737339668839e-02  1.2776249947647705e-02  3.0714330338525008e-02  -4.0567298836262544e-01  2.0656864306326045e-02  -1.2382699243139643e-01  3.8180537002749600e-02  3.3682882009761222e-01  -1.2792560975016619e-02  1.3099952860553412e-04  -1.0056127268481202e-01  2.9426788722638338e-09  1.0946907338535916e+00  8.9522647995815730e-01  -1.3578631518852380e-02  -4.5278189079804451e-02  -1.1561833472687932e-01  3.4487932745145167e-02  2.9268929648103015e-02  -1.0696784314272222e-01  1.4541102711318551e-02  -1.6541681270478265e-01  5.3925361852808118e-01  4.8473417974744692e-01  4.8927225932891233e-01  1.4460457019114787e-02  -2.8279405985355034e-03  3.6129234645611935e-02  3.4102569140743937e-02  3.2513382782763667e-02  1.5984682946617503e-02  5.4573565097854393e-01  1.8298792035311418e-02  -3.6086125931076862e-01  3.1374786797671909e-02  2.3319171995565345e-02  2.4239375952644679e-02  1.5013175206073582e-02  1.5015732924985621e-02  -1.7914339514202490e-01  2.0211171974339619e-02  -1.8714492657053089e-01  2.79603120759182