<?xml version="1.0"?>
<VTKFile type="UnstructuredGrid"  version="0.1"  >
<UnstructuredGrid>
<Piece  NumberOfPoints="2426" NumberOfCells="4534">
<Points>
<DataArray  type="Float64"  NumberOfComponents="3"  format="ascii">0 0.41 0  0 0 0  2.2 0 0  2.2 0.41 0  0.2404508497187474 0.2293892626146237 0  0.25 0.2 0  0.2404508497187474 0.1706107373853764 0  0.2154508497187474 0.1524471741852423 0  0.1845491502812526 0.1524471741852423 0  0.1595491502812526 0.1706107373853764 0  0.15 0.2 0  0.1595491502812526 0.2293892626146237 0  0.1845491502812527 0.2475528258147577 0  0.2154508497187474 0.2475528258147577 0  0.5404508497187474 0.2293892626146237 0  0.55 0.2 0  0.5404508497187474 0.1706107373853764 0  0.5154508497187473 0.1524471741852423 0  0.4845491502812526 0.1524471741852423 0  0.4595491502812526 0.1706107373853764 0  0.45 0.2 0  0.4595491502812526 0.2293892626146237 0  0.4845491502812526 0.2475528258147577 0  0.5154508497187473 0.2475528258147577 0  1.1 0 0  0 0.205 0  1.1 0.41 0  0.55 0 0  0.55 0.41 0  0.275 0 0  0.275 0.41 0  1.65 0.41 0  1.65 0 0  1.375 0 0  1.375 0.41 0  1.925 0 0  1.925 0.41 0  0.8250000000000001 0.41 0  0.8250000000000001 0 0  1.5125 0.205 0  1.7875 0.205 0  0.9625000000000001 0.205 0  1.2375 0.205 0  2.2 0.205 0  0.7560964076246335 0.2151713709677419 0  1.99375 0.2152743902439024 0  2.0625 0 0  0.6875 0 0  2.0625 0.41 0  2.2 0.3075 0  0.6875 0.41 0  1.7875 0.41 0  1.375 0.1486128048780488 0  1.5125 0 0  1.7875 0 0  1.5125 0.41 0  0.9625000000000001 0 0  0.9625000000000001 0.41 0  0.4125 0 0  0.1375 0 0  0.1375 0.41 0  0.4125 0.41 0  1.2375 0 0  1.1 0.1486128048780487 0  1.2375 0.41 0  1.65 0.1486128048780487 0  1.126715909090909 0.2793064024390244 0  1.676715909090909 0.2793064024390244 0  1.348284090909091 0.2793064024390244 0  0.34375 0.3032389320646208 0  1.894702181800738 0.1282910975492754 0  2.092797818199262 0.1282910975492754 0  1.85625 0.3075 0  0.8630851210521902 0.286932093388664 0  0.89375 0.1025 0  0.35 0.1090282786671641 0  0 0.3075 0  0 0.1025 0  0.6526217841291382 0.288229645480046 0  0.7562500000000001 0.09660248895515888 0  0.6568633732316684 0.1557582854763441 0  2.099172119769978 0.25625 0  1.002356446954348 0.1010393851523063 0  1.99375 0.08395950269330846 0  1.459960956013612 0.3075 0  1.569025960719943 0.2986889805672169 0  1.03125 0.3278689922742084 0  0.75625 0.3247156761655783 0  1.959375 0.3126371951219512 0  1.749222215368287 0.1025 0  1.275777784631713 0.1025 0  2.2 0.1025 0  1.225938124459196 0.3075 0  1.550777784631713 0.1025 0  1.44375 0.07430640243902442 0  1.16875 0.07430640243902437 0  0.3528655045338512 0.2063263890916129 0  0.5890337614812103 0.08775733857679162 0  0.8504912436891263 0.190072835691683 0  1.899250267340833 0.2229966846119207 0  0.1020898364287272 0.3140258291809757 0  1.766482954545455 0.2934032012195123 0  1.051658316544432 0.2265720188842194 0  0.2 0.3400647632937836 0  1.421109702350723 0.2261157654379721 0  0.4812500000000001 0.41 0  0.4324401666997539 0.3216425986889796 0  0.098916018031319 0.09171660955420841 0  0.9508742791313441 0.2921736960864468 0  2.13125 0 0  2.118919042110979 0.3422084711244843 0  1.30625 0.41 0  0.20625 0 0  1.597888256393107 0.2173787389261347 0  0.4812500000000001 0 0  0.4324082967851086 0.08384041677422771 0  1.829299675393195 0.07400700849299596 0  0.568219932524165 0.3212274660843853 0  1.71875 0.41 0  0.268005226542646 0.08512186835670006 0  1.16875 0.41 0  2.038220665644273 0.332420740103091 0  0.6678017527842831 0.07701763866051195 0  0.89375 0.41 0  0.5111435174287687 0.07335351331957608 0  0.176193934632343 0.0734896648625108 0  0.07390688010811153 0.1697064032433452 0  0.05452951551825875 0.25625 0  0.61875 0.41 0  1.452769549894695 0.1548122580621249 0  1.369219062229598 0.07430640243902442 0  1.30625 0 0  1.720943423819132 0.1714577452753128 0  1.157188124459196 0.205 0  1.094219062229598 0.07430640243902437 0  1.304056576180868 0.1714577452753128 0  1.67579304192913 0.07430640243902437 0  0.2672907219039591 0.3037570723459566 0  1.209670467133757 0.1362100266964769 0  1.58125 0 0  1.03125 0 0  0.06875000000000001 0.41 0  0 0.35875 0  1.58125 0.41 0  1.631724228912893 0.3381867502687533 0  0.8240147050827157 0.1225233169495944 0  1.825608881788174 0.14499488549201 0  1.85625 0 0  1.44375 0 0  1.44375 0.41 0  1.85625 0.41 0  2.13125 0.41 0  0.7562500000000001 0.41 0  0.7562500000000001 0 0  0.89375 0 0  0.34375 0 0  0.34375 0.41 0  0.20625 0.41 0  0.06875000000000001 0 0  1.16875 0 0  1.03125 0.41 0  0.61875 0 0  1.71875 0 0  1.99375 0 0  1.99375 0.41 0  0.3972301426712326 0.2593842555611471 0  1.340625 0.3489494290853124 0  1.134375 0.3489494290853123 0  1.700180620188976 0.3438659752031281 0  0.5003922072260507 0.341765274319271 0  0.6212513815748759 0.2209216137134851 0  0.6885607720119526 0.215393731583638 0  1.033412357328477 0.1612902025713047 0  2.135782184673599 0.07126652247502523 0  1.668441847249787 0.2129203728327609 0  1.295782514339747 0.2378437748815763 0  1.409375 0.3520314716057996 0  2.129248544730567 0.1906135162504124 0  2.060771381434487 0.1989445750470348 0  2.013252586573865 0.1496169464686054 0  1.942766402200229 0.1734448904596831 0  1.895522487186454 0.06076163953489683 0  2.069553871656643 0.06605731020975725 0  0.9281250000000001 0.3539050257418612 0  1.274680914880868 0.3520219391081363 0  0.3030138498135347 0.2488370856812789 0  0.8223773249563684 0.341761430177996 0  0.9018164060227267 0.2326477848736739 0  0.8143027982392851 0.2440265179987191 0  0.7225087161029304 0.2699907246386231 0  1.614713220494657 0.09473434380863296 0  0.378125 0.3566194660323104 0  0.309375 0.3566194660323104 0  1.72990325744076 0.2380068107952482 0  0.6915936999299305 0.3429472631234433 0  0.6268087624932918 0.3466455500035671 0  1.356580098625191 0.2120393231351682 0  0.3060160055995138 0.1590148921620778 0  0.3954648733249218 0.156380553890791 0  2.034370752044885 0.2668681600792073 0  1.51768709249349 0.3426260931494756 0  1.561883724969884 0.1650446847858835 0  1.197344062229598 0.2523725417393646 0  0.9281250000000001 0.05124999999999999 0  1.804085235518364 0.3468178408964637 0  1.817887819205233 0.2589243285818559 0  0.9107805776841645 0.1653834539923287 0  1.905897727272727 0.3485060975609756 0  0 0.05125 0  0.844212276491354 0.0614201194265309 0  0.378125 0.05244637078450034 0  1.008571329007178 0.2705955969954818 0  0.7724048032149464 0.1559079561351474 0  0.7203054377831548 0.04941826955193545 0  1.192836486056382 0.3562350748565544 0  0.5967108020713719 0.1479294686523888 0  1.28257088594801 0.2944411014911587 0  0.7041890234548132 0.1222025174424443 0  1.474860187679412 0.2504218616229368 0  1.406767003493824 0.2829282258560709 0  0.3201325899091991 0.05890121548989159 0  0.5979220912872258 0.2727591995766724 0  1.845656689180403 0.1998310418452388 0  2.144958525570388 0.2909790873294231 0  2.2 0.15375 0  1.57794966442982 0.3540357145964566 0  0.9483181579620558 0.1214693369582054 0  0.0496154796471391 0.333125 0  1.508991196088596 0.1421783375065625 0  0.09776612425612034 0.2204896805326566 0  1.50436820029908 0.06143401634903343 0  1.223857000523521 0.0823554862453532 0  0.2531953886959507 0.3582003209055908 0  1.153316824384777 0.1289850171317837 0  2.148922302309752 0.1258841779285271 0  1.621993280276081 0.2841214267927899 0  1.550118654119087 0.2461998729100966 0  1.327182649291491 0.1216967252533594 0  1.753125 0.04556020050186112 0  1.271875 0.04556020050186116 0  0.9824282234771738 0.05051969257615314 0  1.039510847866381 0.05683351822678641 0  1.94956388244759 0.1180512551534177 0  1.949997712993411 0.04965831614304109 0  1.771961817615021 0.1530278789497521 0  1.909246823951428 0.2812757146784527 0  1.101974016627944 0.2038045618205013 0  0.7906250000000001 0.0444674049654372 0  1.948575539857022 0.2445328248721197 0  1.697271520964565 0.1233917627620729 0  1.065625 0.3689344961371042 0  1.085849084308977 0.3170853572226867 0  0.9840604787624379 0.3582077516409966 0  1.577403511714593 0.05463601888079143 0  0.05622663515370135 0.05493816910862376 0  0.8762396958822678 0.3392249777398821 0  1.751571320346033 0.3651102912045228 0  1.055327852410105 0.111864799513911 0  0.1583785085108421 0.2994699345738728 0  0.1455283439499995 0.3542795598723423 0  2.2 0.35875 0  0.225705107073232 0.05084786997482401 0  0.1455852234589313 0.1166494778469164 0  1.466879772203159 0.3611261772912453 0  1.990280163552011 0.3564754268533217 0  1.17471064520912 0.2990917256188288 0  0.7221925551074015 0.1739659241003985 0  0 0.25625 0  2.2 0.25625 0  2.2 0.05125 0  0 0.15375 0  1.853978576207987 0.35875 0  0.21965520498276 0.1015543880164422 0  1.515638456102889 0.2882700110184686 0  0.09048297387599738 0.3637717362208066 0  2.150453692751374 0.2387066338105111 0  1.323782677156475 0.04897634338873398 0  1.409375 0.03715320121951221 0  1.406484531114799 0.1087852750766809 0  1.134375 0.03715320121951218 0  1.627401732573545 0.04552157221025036 0  0.446875 0.3713289093361426 0  2.045405893604797 0.1105340662939892 0  1.255408269734577 0.1577307500159216 0  2.028125 0.03707597992059326 0  0.04420832937638274 0.128125 0  0.5817551710628505 0.3702615006034757 0  0.1197849154434487 0.2663398672460083 0  1.248258025468107 0.2565907092181813 0  0.1300647302703173 0.0508462728378621 0  0.7738123537510222 0.2761231499240648 0  1.203125 0.0366132337404304 0  0.5444207041612499 0.111205399508622 0  0.8016457771828226 0.1964238426015905 0  2.072662025974815 0.2975086504196739 0  0.4019040438866802 0.2103993403217561 0  0.4677372330974851 0.04827477407630658 0  0.8677218578847617 0.1432970430140788 0  1.058011122005847 0.2758866204059919 0  0.4429405887974043 0.2746184809910084 0  0.5843750000000001 0.03726989681835222 0  0.6318596133730142 0.1128692182767254 0  0.4862628454464408 0.2957029785303028 0  0.7805186758662764 0.3673578380827891 0  1.887722846421017 0.1760882698830035 0  0.3498893058880703 0.256189258793856 0  1.472640588990488 0.1118278026240017 0  1.865937103925594 0.2604137786483804 0
[...]
<PointData  Scalars="f_43"> 
<DataArray  type="Float64"  Name="f_43"  format="ascii">4.2011205528414997e-01  4.5011313375887574e-01  1.4385235928760336e-10  -1.8272074875143625e-09  -3.6410706933871750e-01  -3.2809646955422744e-01  -3.5118146154823621e-01  -5.1857553130447942e-01  -9.3638789190849270e-01  8.5913026731864339e-01  1.9937188981256502e+00  3.9831314654435884e-01  -1.1597159864445943e+00  -5.1091532594250266e-01  -2.7990545951521567e-01  -2.5797087866337548e-01  -2.9628085403464444e-01  -4.6077453624293896e-01  -1.1936581063623819e-01  -1.0183720591752896e-01  -2.9838220577072061e-01  -1.5549607387638117e-01  -9.0811661516673775e-02  -5.2533763661547805e-01  5.0854695889293111e-03  7.6199545768851773e-01  -4.1757336706586025e-02  -1.9944125327412390e-01  -2.0447646317379123e-01  -3.4299701033677714e-03  1.8711417935203561e-02  4.1466062379867642e-02  3.1793535156545129e-02  3.5324052200192566e-02  3.6763826686516732e-02  2.8121044351194256e-02  3.1977629971703204e-02  -8.7250679282832186e-02  -9.0961545558800372e-02  2.9945204394820613e-02  3.5778809723027563e-02  1.0736719826110094e-02  1.9808548271488147e-02  -2.1445590365531927e-09  -7.3567368973832953e-02  2.2719112796598658e-02  1.3734659612197553e-02  -1.3828335439623191e-01  1.4707626806366853e-02  -1.7745357055684378e-09  -1.6277709037806093e-01  3.7686496748341257e-02  3.5327077597812291e-02  3.7370529376633523e-02  4.4872701153280500e-02  3.0982308950788406e-02  -6.3033753460254999e-02  -2.5227235577094189e-02  -1.9645428616363841e-01  3.6684628732218139e-01  3.4489656487208681e-01  -1.7912851866272969e-01  -2.1518125552415592e-03  2.0626797094336274e-02  7.4971614956532403e-03  3.6932738333467052e-02  -2.1813906849744040e-02  3.6109313061330098e-02  2.6367408917867964e-02  -2.5555599850016569e-01  3.1951947472469405e-02  1.1051753771560459e-02  3.6685691530757528e-02  -7.9425272639127437e-03  -6.2433608040432124e-02  -3.0461180064619836e-01  5.1667953792171561e-01  5.5008624129383354e-01  -2.1100002791259584e-01  -9.1251026459150772e-02  -1.7589617972648225e-01  1.0778712744770515e-02  -2.4799099268060201e-02  2.0909723306581609e-02  2.3254365644140459e-02  3.9678909107827655e-02  -2.6806252461387049e-02  -1.1690124422100988e-01  2.7678018589194282e-02  4.4185685420284601e-02  -1.6672273236374969e-03  5.6862553657151494e-10  5.6647409952299424e-03  2.5826713646216762e-02  5.2034144504013967e-02  1.0843447240295128e-02  -3.5813542799848513e-01  -2.1432016290375097e-01  -1.6276668274877261e-02  3.2758089680455876e-02  4.6016880644917041e-01  3.4104339374510316e-02  -1.9599757692201698e-02  1.4864138938462423e-01  9.4959608720835455e-03  -2.0308895230489615e-01  -2.2002150540555185e-01  4.8865709419882752e-01  -3.4501994755924887e-03  6.9119727289449441e-03  8.2233963788306153e-03  3.4415032241915090e-02  1.9440540662074440e-01  3.7426070413588697e-02  -2.0852430008913095e-01  -2.1428915281653990e-01  4.0627248895950638e-02  -2.3099723779113240e-01  3.8048522741402073e-02  -1.5304848881259639e-01  -2.7639378351044630e-02  1.7448907272585291e-02  -1.4852534964535041e-01  -4.6204233747990334e-02  -2.2118001647108093e-01  2.1118528075453435e-01  8.9436404056445096e-01  7.1717240344686473e-01  -1.8885181663148617e-01  3.6664429546350248e-02  3.1160389399767410e-02  8.6742359494005657e-03  4.0827987071745668e-02  6.7672357914624537e-03  1.0404769977505036e-02  9.0558535863170080e-03  3.4837972639676917e-02  -1.8904077140006725e-01  4.5224001096190033e-03  2.4657397801724931e-02  -2.3524139088682530e-02  4.0794212971751531e-01  4.3228442872639589e-01  3.9390250045930941e-02  4.2851815569060876e-02  -6.3039036414710536e-02  3.8067538908537923e-02  3.6948026703822689e-02  4.8679155441676759e-02  2.9012073770992689e-02  3.7491971068675488e-02  6.9922345648008744e-03  -1.2921146634698888e-01  -1.0667532447201622e-01  -8.4288083849376721e-02  -1.4150223313670676e-01  -1.0965932053800219e-01  1.9489475647196164e-01  4.3580162686642754e-01  6.5421836683887593e-03  -3.1524992320502494e-02  -1.7163931943437113e-01  4.4026759234890300e-02  2.0692064210469631e-02  2.2976279386007617e-02  -3.3773108530142737e-01  4.1102691771549918e-02  -4.3726098581628278e-02  3.7554293334540259e-02  -2.1808692028844245e-01  -2.5169728542720410e-01  -1.7526296369727035e-01  2.0185981913982673e-02  6.4854869619839573e-03  3.6522596547673328e-02  3.3003048084519121e-02  3.1575883270164196e-02  7.5379428194915377e-03  1.5051451206154863e-02  1.9737410631526505e-02  2.7671129434385513e-02  3.1738318122319392e-02  1.3083665226735089e-02  -2.5431916187898078e-02  2.6794083466712488e-02  -3.5423991617912903e-01  -7.8873868102672468e-02  3.3312284969664249e-02  7.6104121744023569e-04  -1.3483106828805441e-01  2.2043590611009266e-02  -1.6967794085215113e-01  -8.6492899449923957e-02  3.1803558536304566e-02  -1.6058915939286270e-01  -1.9144210703108172e-01  2.2282690610298785e-02  -3.5584242969173652e-01  -3.8172216746041221e-01  1.8147605832790504e-02  2.9094896804835454e-02  2.0467728471025456e-02  1.9302118976176414e-02  -7.7962531340620825e-02  3.6646821526641449e-02  3.6621948716569035e-02  -1.6736318634261962e-02  3.4974394933498812e-02  4.6304306778960075e-01  -8.4113792551010799e-02  -1.9328623028247938e-01  -1.5806554980232278e-02  -5.7278190018437536e-02  -1.1651583666513765e-01  -1.9632660414434098e-02  -2.5131622026618644e-01  2.9546984177678863e-02  -1.1523667018331452e-01  2.4742732662355094e-02  2.0215282619578386e-02  -1.3698987710602403e-01  -2.5928562850545528e-01  3.6297134435981981e-02  5.6221880057255929e-03  1.3059684926081388e-09  3.9701566332503338e-02  -3.0850642937616891e-02  4.5569437387116518e-01  2.5709547242430634e-02  1.1142099829292285e+00  4.0737160218107894e-02  -1.7594514535750373e-03  2.8606271791316858e-02  1.3784585684936478e-02  5.2747863524279185e-03  4.0598843840754822e-02  4.3763184373810465e-02  1.6138745656683644e-02  4.6926977727987998e-02  -4.4373486340867387e-03  -5.3921235006114281e-02  -1.7119754914397982e-02  2.5897364503608432e-02  2.5200435030674328e-02  4.0766135145605099e-02  3.2977266628611016e-02  -5.7033120711917724e-03  -9.2033498228703325e-02  2.7944388531008973e-02  4.0671435307012130e-02  -3.8912118132906473e-02  -4.0245478416495811e-02  -1.9745671216076607e-02  2.1501787902483589e-02  4.5621891388822777e-01  -4.3845688577384002e-02  3.6201313973804584e-02  4.2880159938716985e-03  2.2795501029050533e-01  3.1927198764059511e-01  1.5931206890466830e-09  9.6070196589599269e-02  3.3461941134762979e-01  2.5604918831143731e-02  2.3512873135232839e-02  -1.7158558719309526e-02  -8.6903555594891810e-02  6.6784174229025173e-01  -1.7745357055684378e-09  -2.1869239571093425e-09  6.9378293958280213e-01  3.8048197508368270e-02  -1.4283675933710471e-01  3.2950623141499269e-02  3.9929839130859646e-01  5.2445377396543817e-03  1.0439337808276387e-02  4.7042344501483389e-02  4.0728545865842965e-02  1.1484746690479190e-02  2.4601361455992232e-02  -1.9571284304720912e-01  1.5819062983099590e-02  9.8275640940156386e-04  1.7210192676325006e-02  6.3694724311104378e-01  -1.9899523784868242e-01  6.6367670457427730e-01  3.0784516969169357e-02  3.7240278357682410e-01  -6.6497542645490126e-02  1.2408395736656450e-03  -2.7735372462925301e-01  -2.5411342360494665e-02  1.3575469188617925e-02  -3.3631964264662367e-01  -2.0653376772492177e-01  -4.3075715267188591e-02  -2.6418951303879983e-02  -2.2703887469042586e-01  -1.8784387755432128e-01  -1.9274610666788780e-01  -2.3395195030320476e-01  -1.1335841586267320e-01  3.3066731510406844e-02  -3.5472798706260922e-01  4.0190026041612356e-02  3.5631984407173967e-02  5.5842031734294828e-03  2.2408832635553495e-02  -1.3278330292774182e-01  3.4869551692885269e-02  -1.4682933754777228e-01  -1.6619179379214810e-01  -1.3962247144300319e-01  5.1995562576148862e-03  -2.2280541943090892e-01  -1.9445612794486627e-01  3.4250503734170643e-02  -2.9510959301049194e-01  -2.4162531071443866e-01  3.4559048458782958e-02  9.5253259709466853e-03  2.9010893592879294e-02  -3.7673335542105939e-02  1.8740764682886889e-02  -3.4902103865220729e-01  -3.6087940462475310e-01  2.7183159707653184e-02  -3.7202038204729565e-01  9.0165680497027190e-01  3.5289316608684278e-02  8.3714247516601459e-01  2.3361936502001201e-02  3.1224658194633936e-02  -1.0969884137365148e-02  3.7527710695871574e-03  1.0703219008362932e-02  1.3053243253537654e-02  -1.3446443522202508e-02  5.4497660808915929e-03  4.1540317081284431e-02  -1.7180012323957999e-01  -2.9580693826598420e-01  4.1765545653898548e-02  -6.5540129344167183e-02  2.1466150369479561e-02  1.2742320630527177e-02  1.3166965100234742e-02  4.5363392613914470e-02  3.3969831353163046e-02  -2.0723130774052867e-01  -2.0113212710966261e-01  3.5200057902605657e-02  3.8420166993778787e-02  4.2944576484179577e-02  4.0944921907545935e-03  4.0570845701032622e-03  4.1761740379941897e-01  -3.0912596412617432e-01  -4.1795647936102777e-02  3.9028957164769520e-02  4.4618155674354877e-02  3.5327966254589421e-02  -8.0850601751737555e-02  2.9038836295544511e-02  2.9521182615242607e-02  -8.3781578683624805e-02  -2.0766484478067518e-02  3.7942224670294455e-02  3.4577321154620748e-02  2.9058549060521960e-01  4.0759296328026780e-02  -2.0681774995665483e-01  -2.0339904674856663e-01  -4.2770165005764677e-04  2.7991557568280029e-01  1.5124697363028990e-02  -2.8290631771155379e-02  3.1836423148602494e-02  -2.5617861522166052e-01  5.1463139140815045e-03  1.1222082869111877e-02  4.9332978411265091e-02  4.3314579672084512e-02  -2.6865458788909979e-01  -1.9692893975252315e-01  1.5670193034940726e-02  1.5802429959269355e-02  2.9566679848455945e-03  1.5219461136557800e-02  -7.3596681641295981e-04  4.1287006572121926e-03  4.1180569395374234e-01  3.7005564717028948e-02  -1.3772943312282804e-01  -2.2115053048002209e-01  -1.4324791838763809e-01  2.1142429925786261e-02  -3.4116250760639449e-01  3.5527750475330626e-02  -8.7980494576744839e-02  3.6998401762356796e-02  3.2434726716823896e-02  2.7704718469068926e-02  -6.0409094265129352e-02  3.5592838344162762e-02  4.2495580597546892e-02  3.3642510562743207e-02  3.1220446419801550e-02  4.4743856346497313e-01  4.2046528100697866e-01  1.7602065504490828e-02  4.0347019144593155e-02  -6.9165674715972125e-02  -7.8886039696582505e-02  -4.4871773159694907e-02  1.3939334614078492e-02  5.5252941535345579e-01  -2.3358547646916369e-01  6.8856760825571639e-01  -1.7883769961623699e-01  4.5421099044897592e-02  -8.3597810068848574e-02  -1.3774135580511429e-02  -2.6112832097367217e-01  2.8865511257537359e-02  7.5801153537434063e-01  -1.9028627613461879e-01  1.6862273902047798e-02  1.9604083352193637e-02  2.5013855581193456e-01  3.7075257026918156e-02  5.9297380025453972e-01  3.2768427953825806e-02  -1.1257178517879203e-01  3.5225407801850697e-02  1.6765122339274015e-02  4.2393837228873014e-02  6.6839799067272207e-03  3.0302059556536740e-02  2.8666964582900911e-02  1.2931036447313513e-02  4.1325732043476962e-02  2.3046221226555197e-02  -1.9376503867304626e-01  2.3932228991280405e-02  -2.4029530388120757e-01  -1.5621227537245053e-01  7.1441452187825938e-03  3.8651332514130229e-04  5.2437231741950996e-01  4.2753443457322078e-02  4.0294956786998182e-02  2.2863749119432961e-01  4.3099374529813655e-01  -2.6045846860786072e-02  4.9340548525838313e-01  4.1964381503543008e-02  -7.2751215134007355e-02  2.6725254458339315e-02  -2.0696387230593410e-01  3.2054271574253522e-02  4.1448144456945023e-02  -1.5394680659562635e-01  -4.3101936259144082e-02  1.4866929014003103e-02  1.8993757257493929e-02  3.9256746248726116e-03  9.5185943235913777e-03  -6.9451870600549331e-02  8.8682489055914391e-03  3.9129948541117730e-03  3.4505955205852548e-02  2.7860195715753652e-02  -3.4741983841167406e-01  4.6570133182410912e-02  -4.5413488755376555e-02  3.5987599823676898e-03  8.1347731190033780e-03  2.6710666286521353e-02  9.3516246509425197e-03  2.0420048828472211e-02  3.5592110491296361e-02  3.8431100714191313e-02  -8.0515146574204003e-03  -2.1032073056226960e-01  -2.0335504326146933e-01  9.2381110422541379e-02  -8.5114223621865021e-02  -1.0336662806646690e-01  -2.0669840307753418e-01  -1.8021068475919333e-01  1.3585171487668921e+00  -3.4986384086946237e-02  1.5198031730369438e-01  -3.3654548025793908e-02  -3.8220389757266250e-02  3.6357365139213477e-02  3.8137193050584835e-02  3.7776636309831378e-02  -3.7024011658451095e-02  3.0449991475052226e-02  8.1757377281930898e-03  -1.0631305738223988e-02  -3.3438834645406179e-01  -2.0613983694484811e-01  3.5795730868097966e-02  -3.4407358098688717e-01  -2.6546257747286467e-01  -3.9660828461419431e-03  -3.0032664453804608e-01  -3.5271029848096530e-01  2.8291458043811668e-02  3.9888310723940668e-02  2.2356671853600359e-02  1.8446785186828570e-02  2.7136701539115144e-02  2.3230411553182256e-02  -2.2503884125980492e-01  -4.2607023444751473e-02  -2.8262216270335996e-02  -6.0836420620243052e-03  7.8982686557416224e-03  2.1377710377914722e-02  3.4320078303754125e-03  1.0432096672023964e-02  4.5619482915943567e-02  2.8128404898264212e-02  3.7316091392124814e-02  -3.8286084142775484e-02  4.6064027584966007e-02  -1.2092546948775727e-01  -7.6177127064889535e-02  -3.2295763207331546e-02  3.2639828768030239e-02  9.1533300592123099e-03  3.3969054394611124e-03  -5.8240399699885466e-03  -1.9444880026788416e-01  -1.7567755095638352e-01  -1.5069610679102186e-01  3.8493479547296250e-01  1.0628663405746022e-01  -1.0891165432200196e-01  -1.8896067050547713e-01  -1.9888818702120345e-01  -9.6849810846981479e-02  -5.6508786295877911e-02  -1.2019598742239607e-01  -1.6206595642587893e-01  -1.7690423109556347e-01  1.2788789004236157e-03  2.5944392537837962e-02  2.4365789543740874e-02  -1.5941792077325836e-04  1.7208102075899220e-02  2.7647723929081068e-02  -4.3747104210784010e-02  3.7466422419006648e-02  -1.7393050576027377e-01  1.9511622711056373e-02  2.5029674967517443e-02  5.7354571448462212e-03  5.3897081787134338e-03  4.1126351157643154e-02  1.5441017765911677e-02  -9.2981382883353919e-02  -4.6975209622573295e-02  -3.1758432007966614e-01  -3.3894264021604081e-01  -1.2065515267823221e-01  2.9574347830951800e-03  2.6227903241581713e-02  2.9639805164455173e-02  -5.3717006673037661e-03  3.8720931562234362e-01  -3.1412725264352834e-02  3.3757640608495627e-02  2.5696560169351259e-02  -1.1820818473972262e-01  3.0204956615876018e-02  2.8317647352526648e-01  2.5541251840665035e-02  3.0173812361187317e-02  3.2522006565354762e-02  3.5703812973067718e-02  1.8423532908950845e-02  -1.5553646477109995e-01  3.5154000894999426e-02  -7.2501874525007295e-02  3.9102195296375944e-02  3.4910762896428256e-02  2.0295043679383631e-02  -1.8018076531870048e-01  3.2289095681039354e-02  2.8248662634473877e-02  7.3220837396837846e-01  -1.8337359901172592e-01  2.2268831399725374e-02  2.3080181976728814e-02  -2.7295302517515713e-01  -8.6465019017034933e-02  1.3869488988383484e-02  1.1395202241547041e-02  2.7724616027409520e-02  7.9598144756484868e-01  1.2962438413302361e-02  6.1413826565726651e-03  3.0015761223307104e-02  3.0154547278340639e-02  3.6320623404181462e-01  1.1856914729788635e-02  3.2360202278062983e-01  -2.3747119647549372e-02  1.7429806643955815e-02  -3.7022802320509607e-01  -3.7462166342048009e-01  3.7515444100019051e-02  -3.5743487800423857e-01  -6.9182158689895704e-02  3.7184177509632398e-02  3.6923149979874108e-02  3.6549978630537883e-02  2.4151177178854837e-02  -3.7421284329797515e-02  3.2929710047713734e-03  3.6013225438308659e-03  -3.1218672121992076e-02  2.3032835594513797e-02  -2.0144399917687564e-01  2.0939883302760955e-02  2.6161952738334025e-02  3.4199908853401663e-02  -8.8590976108943675e-02  -1.5707206897612308e-01  -1.1008461061995012e-01  -8.6922518454811845e-02  1.0832582715705813e-02  3.7214533695537066e-02  -2.6902980159830098e-01  -1.8369660755062434e-01  -2.0753300039384825e-01  4.0687448131530989e-02  5.7673953929565946e-01  2.3038902167117487e-02  -9.7534960356749009e-03  -1.1444329818265794e-01  1.7959841247411262e-02  -2.4413631684282552e-01  3.6952215629036687e-02  -3.5754189536595721e-01  1.6221897715091371e-02  -1.5643182333164773e-01  -1.8533286634939825e-01  -2.1510762914305384e-01  3.0439759379895348e-02  6.4638670884272732e-03  2.5632507149612561e-02  3.6421607485037949e-02  -1.3594558518524164e-02  -9.1527745730487234e-02  1.1178073515611047e+00  3.3429061495783986e-02  5.4100091264747295e-03  -3.2946740612418479e-01  3.1749021226628406e-02  1.7068301594582926e-02  3.8272638224106988e-02  4.8989262909902027e-02  3.5212764666509390e-02  3.6234408526744276e-02  1.1475189415236097e-02  4.1662022387188538e-02  2.5697391434005658e-02  -7.1421730700654079e-02  -8.3276170278110628e-02  4.5051339531723678e-01  4.4877295144631324e-01  2.1929220657864075e-02  -2.7893051516178358e-01  3.1460958094531657e-02  -7.4222283479711869e-03  -2.0778025530658190e-02  -1.9544327419429887e-02  3.3589073485292213e-02  -2.6994632777180970e-02  5.9772177803333559e-01  -4.6966831201301691e-02  3.5067725107566457e-02  6.5566906589245896e-02  2.3926842471943258e-01  -1.2684168218540243e-01  2.2756054698803894e-02  3.9256617511153065e-02  -2.4951162423807377e-01  -2.1428936247554653e-01  -3.5737151410549950e-01  -6.3230404244101063e-03  3.7980763466732251e-02  -2.7292942409056431e-01  4.3318421233256915e-01  7.4573471846818451e-01  1.0070370597030963e-02  -1.3164639206147213e-01  4.1068536448535191e-02  2.9439820456465472e-02  2.9975436577603459e-02  3.5381749861051755e-02  -2.1445590365531927e-09  -2.2037203525676222e-01  3.7488411364849240e-02  3.5926466774733020e-03  -2.2396380700183918e-01  -2.2893758822091737e-01  1.4677448099106073e-02  -1.2876179866878137e-01  3.8452691411452183e-01  3.6941614232112846e-01  3.3408679903984648e-02  1.4988579445203423e-02  1.3884670232980375e-02  2.4916032099811906e-02  2.8870658493932031e-02  5.0408963738433586e-02  3.7454524515533001e-02  -1.8860366767822698e-01  2.0240654217855786e-02  1.1177936956834854e-02  -3.0978915934993835e-02  -3.8158629817580975e-02  -8.5230702708625358e-02  -2.3184004336372191e-01  3.4413839348232743e-02  -1.3398336208990627e-01  3.7525332875725008e-02  5.6862553657151494e-10  2.2001928109502900e-02  3.1843682712777377e-02  2.7291705246278438e-02  -1.3499789136865381e-01  4.5661788601446783e-02  9.8981210522782054e-03  -4.4819918892635612e-02  -1.9620573410066750e-02  -2.2251127119620882e-02  -4.7599306815822778e-02  2.1288804250819911e-02  -1.4239059879367593e-02  -8.1224485615737530e-04  -3.6054322201462041e-02  3.1291729317850299e-02  4.2123659808185811e-02  -1.1791712884737713e-02  3.8810935389887069e-01  -1.4419989946516649e-02  3.7040231930024217e-02  -7.4532521542231014e-02  6.3987687206577635e-03  7.3451421776141610e-03  2.9280507410862099e-03  -2.0890317240142928e-01  3.5174719367678943e-02  2.3864230525041063e-02  1.4877476531593230e-02  -2.2195876145055393e-01  3.4231469958897341e-03  4.5638381724572179e-02  4.5926587459061058e-02  -1.8842048461077637e-01  -2.0346692465926497e-01  2.3531111262532330e-02  -2.3925518700948881e-01  -2.6242624382521940e-01  -2.5339857748717293e-01  9.4326190542001510e-03  1.2596007225737721e-02  1.9160893169394993e-02  -4.2833162539178293e-01  -4.7398328695215782e-03  -1.2654266229663630e-01  -4.2829303560944975e-03  3.1502714023314327e-01  -5.7976410185905075e-02  1.4547464033187324e-02  -1.0307324522308640e-01  -2.1445590365531927e-09  1.0724162908390842e+00  8.7315505031931040e-01  -2.2211969350084283e-02  -3.2946216104674013e-02  -1.6109594249466649e-01  4.0132086979494663e-02  4.2297060871182186e-02  -1.4411319779840961e-01  2.9051467541468864e-02  -2.0137314009247467e-01  5.1736590985173270e-01  4.6286772905248430e-01  4.6741033741179489e-01  2.7380042776808736e-02  1.1897528731025975e-02  3.8375122040649842e-02  4.2303555626574993e-02  4.2732197446087812e-02  3.9145938559268109e-02  5.2283494797612906e-01  4.0321098187489938e-03  -3.8229570201421958e-01  3.1061881238932276e-02  3.6730029288151479e-02  3.6256703265235168e-02  2.8279088075300236e-02  2.6929511665098761e-02  -2.0010016916312309e-01  3.5860493454659456e-02  -2.