<?xml version="1.0"?>
<VTKFile type="UnstructuredGrid"  version="0.1"  >
<UnstructuredGrid>
<Piece  NumberOfPoints="2426" NumberOfCells="4534">
<Points>
<DataArray  type="Float64"  NumberOfComponents="3"  format="ascii">0 0.41 0  0 0 0  2.2 0 0  2.2 0.41 0  0.2404508497187474 0.2293892626146237 0  0.25 0.2 0  0.2404508497187474 0.1706107373853764 0  0.2154508497187474 0.1524471741852423 0  0.1845491502812526 0.1524471741852423 0  0.1595491502812526 0.1706107373853764 0  0.15 0.2 0  0.1595491502812526 0.2293892626146237 0  0.1845491502812527 0.2475528258147577 0  0.2154508497187474 0.2475528258147577 0  0.5404508497187474 0.2293892626146237 0  0.55 0.2 0  0.5404508497187474 0.1706107373853764 0  0.5154508497187473 0.1524471741852423 0  0.4845491502812526 0.1524471741852423 0  0.4595491502812526 0.1706107373853764 0  0.45 0.2 0  0.4595491502812526 0.2293892626146237 0  0.4845491502812526 0.2475528258147577 0  0.5154508497187473 0.2475528258147577 0  1.1 0 0  0 0.205 0  1.1 0.41 0  0.55 0 0  0.55 0.41 0  0.275 0 0  0.275 0.41 0  1.65 0.41 0  1.65 0 0  1.375 0 0  1.375 0.41 0  1.925 0 0  1.925 0.41 0  0.8250000000000001 0.41 0  0.8250000000000001 0 0  1.5125 0.205 0  1.7875 0.205 0  0.9625000000000001 0.205 0  1.2375 0.205 0  2.2 0.205 0  0.7560964076246335 0.2151713709677419 0  1.99375 0.2152743902439024 0  2.0625 0 0  0.6875 0 0  2.0625 0.41 0  2.2 0.3075 0  0.6875 0.41 0  1.7875 0.41 0  1.375 0.1486128048780488 0  1.5125 0 0  1.7875 0 0  1.5125 0.41 0  0.9625000000000001 0 0  0.9625000000000001 0.41 0  0.4125 0 0  0.1375 0 0  0.1375 0.41 0  0.4125 0.41 0  1.2375 0 0  1.1 0.1486128048780487 0  1.2375 0.41 0  1.65 0.1486128048780487 0  1.126715909090909 0.2793064024390244 0  1.676715909090909 0.2793064024390244 0  1.348284090909091 0.2793064024390244 0  0.34375 0.3032389320646208 0  1.894702181800738 0.1282910975492754 0  2.092797818199262 0.1282910975492754 0  1.85625 0.3075 0  0.8630851210521902 0.286932093388664 0  0.89375 0.1025 0  0.35 0.1090282786671641 0  0 0.3075 0  0 0.1025 0  0.6526217841291382 0.288229645480046 0  0.7562500000000001 0.09660248895515888 0  0.6568633732316684 0.1557582854763441 0  2.099172119769978 0.25625 0  1.002356446954348 0.1010393851523063 0  1.99375 0.08395950269330846 0  1.459960956013612 0.3075 0  1.569025960719943 0.2986889805672169 0  1.03125 0.3278689922742084 0  0.75625 0.3247156761655783 0  1.959375 0.3126371951219512 0  1.749222215368287 0.1025 0  1.275777784631713 0.1025 0  2.2 0.1025 0  1.225938124459196 0.3075 0  1.550777784631713 0.1025 0  1.44375 0.07430640243902442 0  1.16875 0.07430640243902437 0  0.3528655045338512 0.2063263890916129 0  0.5890337614812103 0.08775733857679162 0  0.8504912436891263 0.190072835691683 0  1.899250267340833 0.2229966846119207 0  0.1020898364287272 0.3140258291809757 0  1.766482954545455 0.2934032012195123 0  1.051658316544432 0.2265720188842194 0  0.2 0.3400647632937836 0  1.421109702350723 0.2261157654379721 0  0.4812500000000001 0.41 0  0.4324401666997539 0.3216425986889796 0  0.098916018031319 0.09171660955420841 0  0.9508742791313441 0.2921736960864468 0  2.13125 0 0  2.118919042110979 0.3422084711244843 0  1.30625 0.41 0  0.20625 0 0  1.597888256393107 0.2173787389261347 0  0.4812500000000001 0 0  0.4324082967851086 0.08384041677422771 0  1.829299675393195 0.07400700849299596 0  0.568219932524165 0.3212274660843853 0  1.71875 0.41 0  0.268005226542646 0.08512186835670006 0  1.16875 0.41 0  2.038220665644273 0.332420740103091 0  0.6678017527842831 0.07701763866051195 0  0.89375 0.41 0  0.5111435174287687 0.07335351331957608 0  0.176193934632343 0.0734896648625108 0  0.07390688010811153 0.1697064032433452 0  0.05452951551825875 0.25625 0  0.61875 0.41 0  1.452769549894695 0.1548122580621249 0  1.369219062229598 0.07430640243902442 0  1.30625 0 0  1.720943423819132 0.1714577452753128 0  1.157188124459196 0.205 0  1.094219062229598 0.07430640243902437 0  1.304056576180868 0.1714577452753128 0  1.67579304192913 0.07430640243902437 0  0.2672907219039591 0.3037570723459566 0  1.209670467133757 0.1362100266964769 0  1.58125 0 0  1.03125 0 0  0.06875000000000001 0.41 0  0 0.35875 0  1.58125 0.41 0  1.631724228912893 0.3381867502687533 0  0.8240147050827157 0.1225233169495944 0  1.825608881788174 0.14499488549201 0  1.85625 0 0  1.44375 0 0  1.44375 0.41 0  1.85625 0.41 0  2.13125 0.41 0  0.7562500000000001 0.41 0  0.7562500000000001 0 0  0.89375 0 0  0.34375 0 0  0.34375 0.41 0  0.20625 0.41 0  0.06875000000000001 0 0  1.16875 0 0  1.03125 0.41 0  0.61875 0 0  1.71875 0 0  1.99375 0 0  1.99375 0.41 0  0.3972301426712326 0.2593842555611471 0  1.340625 0.3489494290853124 0  1.134375 0.3489494290853123 0  1.700180620188976 0.3438659752031281 0  0.5003922072260507 0.341765274319271 0  0.6212513815748759 0.2209216137134851 0  0.6885607720119526 0.215393731583638 0  1.033412357328477 0.1612902025713047 0  2.135782184673599 0.07126652247502523 0  1.668441847249787 0.2129203728327609 0  1.295782514339747 0.2378437748815763 0  1.409375 0.3520314716057996 0  2.129248544730567 0.1906135162504124 0  2.060771381434487 0.1989445750470348 0  2.013252586573865 0.1496169464686054 0  1.942766402200229 0.1734448904596831 0  1.895522487186454 0.06076163953489683 0  2.069553871656643 0.06605731020975725 0  0.9281250000000001 0.3539050257418612 0  1.274680914880868 0.3520219391081363 0  0.3030138498135347 0.2488370856812789 0  0.8223773249563684 0.341761430177996 0  0.9018164060227267 0.2326477848736739 0  0.8143027982392851 0.2440265179987191 0  0.7225087161029304 0.2699907246386231 0  1.614713220494657 0.09473434380863296 0  0.378125 0.3566194660323104 0  0.309375 0.3566194660323104 0  1.72990325744076 0.2380068107952482 0  0.6915936999299305 0.3429472631234433 0  0.6268087624932918 0.3466455500035671 0  1.356580098625191 0.2120393231351682 0  0.3060160055995138 0.1590148921620778 0  0.3954648733249218 0.156380553890791 0  2.034370752044885 0.2668681600792073 0  1.51768709249349 0.3426260931494756 0  1.561883724969884 0.1650446847858835 0  1.197344062229598 0.2523725417393646 0  0.9281250000000001 0.05124999999999999 0  1.804085235518364 0.3468178408964637 0  1.817887819205233 0.2589243285818559 0  0.9107805776841645 0.1653834539923287 0  1.905897727272727 0.3485060975609756 0  0 0.05125 0  0.844212276491354 0.0614201194265309 0  0.378125 0.05244637078450034 0  1.008571329007178 0.2705955969954818 0  0.7724048032149464 0.1559079561351474 0  0.7203054377831548 0.04941826955193545 0  1.192836486056382 0.3562350748565544 0  0.5967108020713719 0.1479294686523888 0  1.28257088594801 0.2944411014911587 0  0.7041890234548132 0.1222025174424443 0  1.474860187679412 0.2504218616229368 0  1.406767003493824 0.2829282258560709 0  0.3201325899091991 0.05890121548989159 0  0.5979220912872258 0.2727591995766724 0  1.845656689180403 0.1998310418452388 0  2.144958525570388 0.2909790873294231 0  2.2 0.15375 0  1.57794966442982 0.3540357145964566 0  0.9483181579620558 0.1214693369582054 0  0.0496154796471391 0.333125 0  1.508991196088596 0.1421783375065625 0  0.09776612425612034 0.2204896805326566 0  1.50436820029908 0.06143401634903343 0  1.223857000523521 0.0823554862453532 0  0.2531953886959507 0.3582003209055908 0  1.153316824384777 0.1289850171317837 0  2.148922302309752 0.1258841779285271 0  1.621993280276081 0.2841214267927899 0  1.550118654119087 0.2461998729100966 0  1.327182649291491 0.1216967252533594 0  1.753125 0.04556020050186112 0  1.271875 0.04556020050186116 0  0.9824282234771738 0.05051969257615314 0  1.039510847866381 0.05683351822678641 0  1.94956388244759 0.1180512551534177 0  1.949997712993411 0.04965831614304109 0  1.771961817615021 0.1530278789497521 0  1.909246823951428 0.2812757146784527 0  1.101974016627944 0.2038045618205013 0  0.7906250000000001 0.0444674049654372 0  1.948575539857022 0.2445328248721197 0  1.697271520964565 0.1233917627620729 0  1.065625 0.3689344961371042 0  1.085849084308977 0.3170853572226867 0  0.9840604787624379 0.3582077516409966 0  1.577403511714593 0.05463601888079143 0  0.05622663515370135 0.05493816910862376 0  0.8762396958822678 0.3392249777398821 0  1.751571320346033 0.3651102912045228 0  1.055327852410105 0.111864799513911 0  0.1583785085108421 0.2994699345738728 0  0.1455283439499995 0.3542795598723423 0  2.2 0.35875 0  0.225705107073232 0.05084786997482401 0  0.1455852234589313 0.1166494778469164 0  1.466879772203159 0.3611261772912453 0  1.990280163552011 0.3564754268533217 0  1.17471064520912 0.2990917256188288 0  0.7221925551074015 0.1739659241003985 0  0 0.25625 0  2.2 0.25625 0  2.2 0.05125 0  0 0.15375 0  1.853978576207987 0.35875 0  0.21965520498276 0.1015543880164422 0  1.515638456102889 0.2882700110184686 0  0.09048297387599738 0.3637717362208066 0  2.150453692751374 0.2387066338105111 0  1.323782677156475 0.04897634338873398 0  1.409375 0.03715320121951221 0  1.406484531114799 0.1087852750766809 0  1.134375 0.03715320121951218 0  1.627401732573545 0.04552157221025036 0  0.446875 0.3713289093361426 0  2.045405893604797 0.1105340662939892 0  1.255408269734577 0.1577307500159216 0  2.028125 0.03707597992059326 0  0.04420832937638274 0.128125 0  0.5817551710628505 0.3702615006034757 0  0.1197849154434487 0.2663398672460083 0  1.248258025468107 0.2565907092181813 0  0.1300647302703173 0.0508462728378621 0  0.7738123537510222 0.2761231499240648 0  1.203125 0.0366132337404304 0  0.5444207041612499 0.111205399508622 0  0.8016457771828226 0.1964238426015905 0  2.072662025974815 0.2975086504196739 0  0.4019040438866802 0.2103993403217561 0  0.4677372330974851 0.04827477407630658 0  0.8677218578847617 0.1432970430140788 0  1.058011122005847 0.2758866204059919 0  0.4429405887974043 0.2746184809910084 0  0.5843750000000001 0.03726989681835222 0  0.6318596133730142 0.1128692182767254 0  0.4862628454464408 0.2957029785303028 0  0.7805186758662764 0.3673578380827891 0  1.887722846421017 0.1760882698830035 0  0.3498893058880703 0.256189258793856 0  1.472640588990488 0.1118278026240017 0  1.865937103925594 0.2604137786483804 0
[...]
<PointData  Scalars="f_43"> 
<DataArray  type="Float64"  Name="f_43"  format="ascii">4.4188922107427697e-01  4.7238941630955561e-01  1.1407877908668063e-09  9.5201471155076884e-10  -3.4246473224212792e-01  -3.0628627096253203e-01  -3.2912461041685792e-01  -4.9657911522545151e-01  -9.1395370746098348e-01  8.8182325408319817e-01  2.0157740253746144e+00  4.1947647864921483e-01  -1.1390787205139501e+00  -4.8953193439792342e-01  -2.5927325224555903e-01  -2.3583977936448164e-01  -2.7217134391311626e-01  -4.4114977233375890e-01  -1.1120445445070701e-01  -8.9105810674267247e-02  -2.7352330702744265e-01  -1.2191598656257105e-01  -5.3983984569521068e-02  -5.0029145255038199e-01  6.2385994610882978e-03  7.8399659238540664e-01  5.8316399617025314e-03  -1.8361616597479558e-01  -1.7852927008763589e-01  1.9406291310786770e-02  4.0222024942259793e-02  2.6206528676367875e-02  3.1769130399664926e-02  2.8753179887462465e-02  3.2406225275987341e-02  1.7742561304789253e-02  1.8156658025408369e-02  -7.2849873147624492e-02  -6.6214092440484679e-02  3.2292551784357915e-02  2.5322161770706980e-02  3.3862454742561665e-02  2.7092172176597009e-02  2.2769372902044835e-09  -4.6367158020813211e-02  1.1670260090721482e-02  9.9036098261393989e-03  -1.3189657587328218e-01  7.4060116135726186e-03  1.2538284477023453e-09  -1.3085656096728590e-01  2.7208302945037496e-02  2.8644564935058067e-02  3.2514212523638453e-02  2.4022386843856765e-02  3.2850305927852139e-02  -2.2831770158055469e-02  -2.4529439875720080e-02  -1.7448905660611475e-01  3.8914108145852655e-01  3.6665138637481798e-01  -1.5710063119040640e-01  2.8496934561807827e-02  2.4270086922812083e-02  1.5906999394215936e-02  3.2010313254275856e-02  1.7661224749083763e-02  2.5797404093983071e-02  3.1864938121731357e-02  -2.3603148108727501e-01  1.8477371843300380e-02  8.0298366576791042e-03  2.4442683305256011e-02  -1.6483820961971853e-02  -1.4322079180100125e-02  -2.7691327250858638e-01  5.3847966719975826e-01  5.7232479017702498e-01  -1.7026469058186949e-01  -7.8922168470453732e-02  -1.8583159692646925e-01  4.8467408807250098e-03  -1.6008164964820175e-03  1.4154771819555901e-02  3.6506035139497059e-02  2.8600270975711543e-02  1.1852376424859830e-03  -8.9333460631195766e-02  1.4970226587646187e-02  2.6138436250775294e-02  3.1329105692969664e-02  -1.1506004066005868e-09  1.6258746675103214e-02  3.3305004981845091e-02  2.8254452876246613e-02  2.1370229554380737e-02  -3.3513796993372713e-01  -2.0182844243646200e-01  2.3878944662593490e-02  2.0458094743932832e-02  4.8193720416525343e-01  2.7341699206572881e-02  3.1108600319638149e-02  1.7034198187410440e-01  3.5967509513673397e-02  -1.7959805231928577e-01  -1.9520255906821934e-01  5.1092098435855482e-01  1.1402071483612255e-03  5.2284026276447470e-03  4.2567109223056359e-03  2.4080290064171637e-02  2.1687750462189456e-01  2.7783646405965496e-02  -1.8900343750775972e-01  -1.9431859752544253e-01  2.1394426162071354e-02  -2.0358327887684452e-01  2.7089911097171234e-02  -1.2993566113716110e-01  1.1055773243961221e-02  8.0708248508348738e-03  -1.4425693460013173e-01  -4.7917996570823303e-02  -2.0374070075410791e-01  2.3353585923793749e-01  9.1647858226544532e-01  7.3902491277569571e-01  -1.5955367755352701e-01  2.9363942165410713e-02  2.8136277512452720e-02  2.9864764518822039e-02  2.8156712758814706e-02  2.6357417930598925e-02  6.3369183051224685e-03  3.1433184262956972e-02  3.0683668454072697e-02  -1.6791292280203721e-01  3.0527274757197666e-02  3.3855855706860540e-02  -8.5772460482375096e-03  4.2972172782061924e-01  4.5406264491784548e-01  2.8188787614045970e-02  2.4988092337385380e-02  -1.9553874336977549e-02  2.1066312339829873e-02  2.0726914715217270e-02  2.9612666514686983e-02  3.5755949204765040e-02  2.3950338043986441e-02  3.9043178445503511e-03  -1.0057399343164521e-01  -9.7793070831823634e-02  -4.0799977833664215e-02  -1.1850221724803706e-01  -8.8144489523915584e-02  2.1654719550268034e-01  4.5807282686301237e-01  2.0211394695853497e-02  -5.4975409885080137e-03  -1.6083801190868277e-01  2.7949345018441218e-02  1.4096961822025559e-02  1.2083891775301659e-02  -3.1844742407455262e-01  2.8477316311336005e-02  1.0066334848267005e-02  2.5998103843658107e-02  -1.9305437272413734e-01  -2.2176092165575681e-01  -1.3540983431169121e-01  2.2397082761962023e-02  5.0603378988500159e-03  2.6654499339557412e-02  2.9096051789519097e-02  3.5754176802562890e-02  4.4916179034504688e-03  7.6129890952211657e-03  1.3016247785720813e-02  1.6437942601153929e-02  1.8891669244344243e-02  9.4967519198561404e-03  -3.3311204788826737e-02  1.8961819770445188e-02  -3.3418826036880794e-01  -6.5382253358578418e-02  2.8591841105567960e-02  -8.3458692769377736e-03  -9.8268841885458175e-02  3.3482961844851528e-02  -1.4794843790789339e-01  -6.5129645160088165e-02  2.7052248413127582e-02  -1.2696345002395978e-01  -1.6080502772148991e-01  3.2946689542785630e-02  -3.3107537250320729e-01  -3.5168636899803096e-01  8.1226479542407023e-03  3.2897856124619679e-02  3.2895265859752838e-02  2.0043666505503672e-02  -2.8288529177459425e-02  2.7238993684323400e-02  2.6313320621650600e-02  2.6957126792738630e-02  2.0062713597063929e-02  4.8531717877403469e-01  -5.1533169228484860e-02  -1.7020828870443028e-01  2.0378467033992063e-02  -3.0293330053957405e-02  -1.1173506064932785e-01  1.2089235392065778e-02  -2.3685439839790562e-01  2.2914177297446547e-02  -1.1733707038354357e-01  3.5128279788639326e-02  3.5653031155116845e-02  -1.1336368520332990e-01  -2.2887130772777051e-01  2.1964024512047486e-02  2.9313557406016135e-03  -1.6079581853784248e-09  2.7717519587123547e-02  4.1927551689828419e-03  4.7747676354246887e-01  3.1795763447927262e-02  1.1361123169628617e+00  3.1700525908075157e-02  2.9193081121783798e-02  5.0183166338925562e-02  2.5574724173828702e-02  4.0674787675504427e-03  2.5791884013709271e-02  2.9714145171713672e-02  2.9952688811472949e-02  2.5754605575744945e-02  3.0359212283721616e-02  -1.7196373609308792e-02  -6.3244581715571771e-03  1.6344266807420207e-02  1.6537623142184345e-02  2.4385352516652730e-02  1.9905663572916076e-02  2.7564309614391467e-02  -7.8016744085009332e-02  1.5965944358540630e-02  2.9503494343519270e-02  2.1174587968113335e-03  1.0304787802413075e-02  -1.5834358511075102e-02  3.4127158281354507e-02  4.7849114101727397e-01  -4.6020995629940269e-02  2.7522333667952960e-02  8.7567166622519056e-03  2.4961450127233173e-01  3.4103089535681957e-01  -5.5420965035688578e-09  1.1862015056520690e-01  3.5693577117370046e-01  3.5953244785677255e-02  1.2050944970458203e-02  1.5407593703435005e-02  -8.9181331564064187e-02  6.8971347750985579e-01  1.2538284477023453e-09  1.0887365043232308e-09  7.1592594034892765e-01  2.4405866136551744e-02  -1.2040064337907405e-01  3.2788450559261904e-02  4.2107711110168788e-01  2.9395087374973938e-03  2.9629453248120278e-02  2.8178317213863317e-02  2.8074812956610296e-02  1.3309795506882762e-02  3.2959817208632100e-02  -1.7290206833658650e-01  1.0988307987084431e-02  3.2166004851285512e-02  1.2028361900770008e-02  6.5915030592125246e-01  -1.7171641804822652e-01  6.8539100867831260e-01  2.3359914532054230e-02  3.9469067753612330e-01  -5.4721061716427009e-02  2.5509461723315800e-02  -2.5929361701878134e-01  -1.1188156212906520e-03  5.9323458175548783e-03  -3.1327757499498510e-01  -1.8677792178062053e-01  1.1704293348531836e-02  1.9035864928802323e-02  -1.9547530857717219e-01  -1.7420786201113148e-01  -1.9063686376726108e-01  -2.0413001908912587e-01  -8.7508267627710537e-02  1.8553291736404222e-02  -3.3853599983843746e-01  2.9869612907359025e-02  2.3547340256682380e-02  1.7536205528692131e-02  3.2762855809552516e-02  -1.1121555262868879e-01  3.3462508426651785e-02  -1.1545263161749814e-01  -1.5665523378277682e-01  -1.0762099575465335e-01  3.1288362779851142e-02  -2.0576670293639251e-01  -1.7954659467594453e-01  2.6681077047350944e-02  -2.7026783350994404e-01  -2.1985365418205102e-01  2.7397173713832313e-02  7.1006080239566366e-03  3.0629594647552705e-02  -3.7331973164676457e-02  9.5176194413721608e-03  -3.2677816514946051e-01  -3.3826630066189511e-01  3.3262639319141613e-02  -3.4162019605501215e-01  9.2390054240961095e-01  2.6765342441345007e-02  8.5912542069713715e-01  1.1557584403604758e-02  1.3757092775112834e-02  -1.7527238561666193e-02  2.3606753451832813e-03  5.5810816372976252e-03  6.3414949830836332e-03  -1.6771122461571209e-03  2.8871586320609363e-02  2.6704200274300070e-02  -1.4028782398447717e-01  -2.7028491749841610e-01  2.3409671061671657e-02  -6.0190352160663069e-02  1.0570832421989996e-02  3.5877979789290693e-02  3.0463558588544441e-02  3.0951988532426807e-02  3.0142915462546722e-02  -1.8189975460276844e-01  -1.7952298471357050e-01  3.0473799975911056e-02  2.9999348620435486e-02  2.8522569156843310e-02  3.1637851684697435e-03  2.4586911866759545e-03  4.3939562170678748e-01  -2.8334666443496098e-01  -1.8848162037118470e-02  2.5494234586769447e-02  2.3284422146328337e-02  1.9642639579384578e-02  -5.8795814262175686e-02  3.3578771335273698e-02  1.6117201303525088e-02  -3.7444777458958738e-02  2.4430009863458699e-02  2.5980699778465607e-02  2.7087981953082148e-02  3.1294412020565765e-01  2.5604398703976065e-02  -1.8895563971435503e-01  -1.8685974263364533e-01  5.2986150541508897e-04  3.0162836512162983e-01  1.0460128435475549e-02  -6.2688988010502376e-03  3.0861003944471246e-02  -2.2945869169197899e-01  1.4859713537415900e-02  7.5973902981254131e-03  2.9992661153048640e-02  2.6943581301075305e-02  -2.4738769150824225e-01  -1.4580673928742513e-01  2.5533647804949156e-02  1.6298168108236904e-02  2.0564151613138296e-02  2.8227283683760308e-02  2.4385930246770906e-02  2.8045096246053745e-03  4.3407931257363824e-01  2.6384476204834383e-02  -1.3173696433459448e-01  -1.9006388095099114e-01  -1.1010974048793873e-01  1.4383235458670929e-02  -3.1983943215765248e-01  2.1212830321020906e-02  -5.2619153333639375e-02  2.0508331588767147e-02  1.9274100124291184e-02  1.7420938962588353e-02  -1.5487627060991023e-02  3.1714783680288072e-02  2.8400023964196868e-02  3.1052910401668028e-02  3.1895049309399286e-02  4.6971324163556433e-01  4.4224276557238795e-01  8.6881106051500678e-03  2.8368357492757963e-02  -6.1779692201954631e-02  -5.5909726816921003e-02  8.3650371835730878e-03  1.4018595722590309e-02  5.7432353577229189e-01  -2.2250194540591503e-01  7.1078324359191036e-01  -1.5818495037144512e-01  2.4174156509607820e-02  -7.3003798005032039e-02  -1.7409862855728837e-02  -2.4016159657459860e-01  3.0849654840442386e-02  7.8012741183872392e-01  -1.6789993300338846e-01  1.1791044233814265e-02  3.6041458394550231e-02  2.7186149549764732e-01  3.2744782076634546e-02  6.1479918893816121e-01  3.2994004368568100e-02  -1.0804766956574847e-01  2.6609312824631120e-02  2.9411386027557052e-02  2.7273405871602062e-02  3.0893231974021662e-02  2.8587731708221192e-02  2.8612113254535634e-02  1.3744802307126517e-02  3.0469882617988768e-02  2.9847694071374040e-02  -1.7924966170645515e-01  1.5142391293590801e-02  -1.9404636497707053e-01  -1.4777920664731181e-01  2.6812510812728039e-02  3.1066781563553098e-02  5.4662501003688935e-01  2.6122102877500327e-02  2.4719433031554709e-02  2.5103888051472084e-01  4.5326595278975562e-01  -1.4229656460061420e-02  5.1566860946147997e-01  2.5945674255396022e-02  -4.3524849000841623e-02  3.1792655083305706e-02  -1.8846540158299308e-01  3.1717775019541414e-02  2.2303154998442886e-02  -1.5932721717854950e-01  -4.6353061419922237e-02  6.0114267535574363e-03  8.2202840201713104e-03  3.0532236342569675e-02  4.3725798134678579e-03  -2.7096326211044245e-02  4.1656623363048101e-03  2.3682522858113225e-03  2.7800014327138099e-02  3.3562548550457906e-02  -3.2583226227811857e-01  2.7578562425191099e-02  7.3485397219986313e-03  2.9512943138311223e-03  6.2735508073159954e-03  1.5240136238136257e-02  4.8518787589359675e-03  2.3806998159557630e-02  1.9848525045963170e-02  2.2777808001226463e-02  1.3542110867509944e-02  -1.8561334408472868e-01  -1.7979022109965609e-01  1.1501300306111677e-01  -6.7681089858260282e-02  -9.5940089350003574e-02  -1.8211583918932076e-01  -1.5811621377427740e-01  1.3805965725820348e+00  -1.2280889355777695e-02  1.7364377446270032e-01  1.0600300158164837e-02  8.9061941121336176e-03  2.3881486348668473e-02  2.8614624735654116e-02  3.2493138513843965e-02  1.3452907928559814e-02  2.9931089521334400e-02  6.0207390561058671e-03  1.3157396831225483e-02  -3.0911579533328887e-01  -1.8518776895121924e-01  1.9864097388738667e-02  -3.2166058345444454e-01  -2.4919219392977976e-01  2.8824672198491837e-02  -2.7346584887017117e-01  -3.3394233914509913e-01  3.6216026683389455e-02  2.6495844260909514e-02  1.3443051873220516e-02  1.0953103624763547e-02  1.4925161860534265e-02  1.9666093091875999e-02  -2.0872715864981703e-01  7.7857646347885591e-03  1.7713958763189295e-02  2.4794306314449902e-02  2.0130087111243457e-02  2.9271127967778008e-02  2.6705535852900135e-03  7.6375896458352058e-03  2.8733526727002655e-02  3.4954067026338104e-02  2.7547297934717729e-02  1.2692929341507277e-03  2.5910925829625321e-02  -1.1451008411328449e-01  -3.0990551417529235e-02  -3.5754957440381235e-02  3.4936754339959492e-02  1.3561130790965638e-02  2.1298713674570433e-03  -1.3345619670069233e-03  -1.7181299811486686e-01  -1.5298497306378367e-01  -1.2900510522833594e-01  4.0670877188367227e-01  1.2787739869262044e-01  -8.6266503973314548e-02  -1.7538207428120364e-01  -1.7141994423338452e-01  -8.1502753057933461e-02  -3.5027329257890975e-02  -9.8710093029266671e-02  -1.4100277673129472e-01  -1.4596887549150320e-01  2.5239464051620239e-02  3.3163865128539020e-02  1.6016814212388056e-02  2.9867810641997845e-02  1.2049430691852612e-02  1.5060038525871689e-02  -1.5600745044373587e-02  2.6854605373835952e-02  -1.3713739580218268e-01  1.3107905917836104e-02  3.3844470191204526e-02  3.3566948635904301e-02  3.1101268935064184e-02  2.8792802098796980e-02  3.0061691683759224e-02  -7.5212209449635511e-02  -4.4300967149582725e-02  -2.9956527682551998e-01  -3.2100957542766617e-01  -1.3519343494882774e-01  1.1493842807352899e-02  3.2628195951663198e-02  2.8775516216917454e-02  3.3429849725741284e-02  4.0949730960056446e-01  1.2115049610159866e-02  3.1202117096134574e-02  3.4939656585065697e-02  -8.6930966193240602e-02  1.8461051012562065e-02  3.0467920965597262e-01  3.6877449968303236e-02  3.5719347704334124e-02  2.6644408876112524e-02  2.1537008895720459e-02  1.9996187444607808e-02  -1.2308552165200391e-01  2.7013190214327867e-02  -5.1149417257590514e-02  2.1296591544676381e-02  2.5791124704025975e-02  3.0864832071656190e-02  -1.4682843747535582e-01  1.8392833428651011e-02  3.4103888594535371e-02  7.5413938723674356e-01  -1.7494002688028745e-01  1.0128549499614605e-02  3.3670800781800868e-02  -2.4831692469868330e-01  -4.9051197888662995e-02  9.9502418094978250e-03  8.4194699166055265e-03  3.0212574674853117e-02  8.1779613268764284e-01  1.5825177505905067e-02  2.7768366144374931e-02  1.7736214771996058e-02  1.7587924894698251e-02  3.8497624896049354e-01  5.4240024175848762e-03  3.4592408573389610e-01  -2.6683877214297040e-02  7.8098240762598326e-03  -3.3839928464512115e-01  -3.4644606467381633e-01  2.6798884684499862e-02  -3.3770340004315724e-01  -1.9488907206812286e-02  2.5960584433056325e-02  2.5706618245872292e-02  2.4830928723956786e-02  1.5970503544681852e-02  9.0776040683011074e-03  1.9281578704839300e-03  1.0344307299747831e-02  -2.0108366680751919e-02  3.3325983073915932e-02  -1.7882635032651117e-01  3.4029980956968811e-02  3.2501984834132525e-02  1.9727591214994976e-02  -6.5022048419742379e-02  -1.0838738734111071e-01  -8.4380620385383714e-02  -6.1652017730883607e-02  2.7315623620163831e-02  2.9107896973646363e-02  -2.4634507746238246e-01  -1.5390961234956957e-01  -1.7892841287246228e-01  2.7140914269080142e-02  5.9900771103555794e-01  3.2029252507729741e-02  1.1765673298718977e-02  -9.1396645799531315e-02  2.9303857885686388e-02  -2.1921528489513842e-01  2.2689403410117680e-02  -3.2888850536136299e-01  2.1258439863592656e-02  -1.3354166464137524e-01  -1.6295171662673102e-01  -1.9274403503373630e-01  1.6697935999968227e-02  3.1662500795230662e-02  3.3769770644149814e-02  2.5912015859408510e-02  1.3762552735814802e-02  -8.0294539895822706e-02  1.1395238553813953e+00  2.7423347367531017e-02  -9.0446251288921389e-03  -3.0162060258712931e-01  2.5849915568072854e-02  1.9708762128370166e-02  3.0184363087552436e-02  2.9923682973017573e-02  2.7063947175522126e-02  2.5428353323473298e-02  5.7174177284042334e-03  3.1645631174408710e-02  1.3648989407724752e-02  -2.6403887495934735e-02  -3.7200308036697910e-02  4.7279039468007117e-01  4.7104934956216010e-01  3.2863479709572888e-02  -2.5881398592932559e-01  1.8486677873426387e-02  1.2127104371522838e-02  2.9372775195736518e-02  8.3777110017429351e-03  2.1644275944370513e-02  2.8694677011848607e-02  6.1949457196634294e-01  -2.6881952729677430e-02  3.0085085662291376e-02  8.7215594649292794e-02  2.6099948572857795e-01  -1.0539351573486619e-01  1.4843844546404073e-02  2.8925812953121615e-02  -2.3373465542598051e-01  -2.1423040760553547e-01  -3.3158210922104503e-01  3.0816218083660227e-02  2.5089064847833232e-02  -2.5044747099766912e-01  4.5545679719851406e-01  7.6764682477476587e-01  7.5246675254489201e-03  -1.2948316529136036e-01  2.1814597639485424e-02  2.2146017402294507e-02  3.2678145374651059e-02  2.2572425902169908e-02  2.2769372902044835e-09  -1.9179033934500411e-01  2.5616590194530178e-02  2.8375951051056087e-03  -1.9820995616833156e-01  -1.8903664862394973e-01  6.4039384964594982e-03  -1.2479475409606249e-01  4.0629830312074078e-01  3.9116102385169954e-01  2.1239943791636171e-02  3.4852371895459831e-02  3.5916231895379451e-02  3.5204494136143558e-02  3.4031337015064736e-02  2.9021445852396216e-02  2.3403527153291040e-02  -1.6471249749336783e-01  3.4542212301361605e-02  3.6584314709794827e-02  9.6921801036300853e-03  4.5179019968645756e-03  -6.3008585824366775e-02  -2.0661116387252920e-01  2.0693408100365615e-02  -1.1052598769553504e-01  6.0254114297621626e-02  -1.1506004066005868e-09  2.0526794649440343e-02  2.6074512471889709e-02  2.0249457795028271e-02  -1.3451242709548403e-01  2.7209149184023698e-02  7.0399834190687559e-03  1.1091539121963841e-02  1.6030750982317068e-02  4.1305019606742372e-03  -3.5660754853612774e-03  1.0886575276546653e-02  -1.7933147110099374e-03  9.2078005967410545e-04  -1.0595836770482517e-02  3.0554831822892054e-02  2.4912431426521713e-02  -1.7247689249145756e-02  4.1039180678700893e-01  -5.2587476559727182e-03  2.7437631930249635e-02  -4.1650091761465315e-02  3.3594722004859391e-03  3.7340106344278356e-03  1.7277958570595486e-03  -1.9091773671201268e-01  2.2973479826361238e-02  1.2206092899093808e-02  2.1809396001165899e-02  -2.1257340949762546e-01  3.0062008641006249e-02  2.6867657278761555e-02  2.4647259231000189e-02  -1.7650150674808851e-01  -1.8898169964073866e-01  3.3503591225812104e-02  -2.0057292762164658e-01  -2.3145100753325251e-01  -2.2562041237005417e-01  2.8153413508358243e-02  2.3037964663945851e-02  3.1459205313467291e-02  -4.0617044988481638e-01  1.3458166529890545e-02  -1.2076319681438963e-01  3.0993197741237540e-02  3.3677438034085150e-01  -1.4184453622990815e-02  1.2460391619369475e-02  -9.6519519603480458e-02  2.2769372902044835e-09  1.0944461244781740e+00  8.9505791779226440e-01  -7.3699607810017000e-03  -3.7845684323836309e-02  -1.2259522306256242e-01  2.7779471927989872e-02  2.6084572952328716e-02  -1.1124484778086362e-01  1.7570818803137336e-02  -1.6806180373497071e-01  5.3916172456199207e-01  4.8465248052622184e-01  4.8919113831759331e-01  1.6694461295538567e-02  4.9630507067157216e-03  3.1788538671725465e-02  2.8702047904172953e-02  2.8030579380103348e-02  2.9796728335916609e-02  5.4525054904307435e-01  2.6073553600308500e-02  -3.6085029249862538e-01  3.2566252917340333e-02  2.3479312663194765e-02  2.7652782032418059e-02  1.7774747088582000e-02  1.7201399291088409e-02  -1.7888330776571001e-01  2.7039319086013720e-02  -1.8813585542079503e-01  2.5407343762952717e-02  1.2035991543