<?xml version="1.0"?>
<VTKFile type="UnstructuredGrid"  version="0.1"  >
<UnstructuredGrid>
<Piece  NumberOfPoints="2426" NumberOfCells="4534">
<Points>
<DataArray  type="Float64"  NumberOfComponents="3"  format="ascii">0 0.41 0  0 0 0  2.2 0 0  2.2 0.41 0  0.2404508497187474 0.2293892626146237 0  0.25 0.2 0  0.2404508497187474 0.1706107373853764 0  0.2154508497187474 0.1524471741852423 0  0.1845491502812526 0.1524471741852423 0  0.1595491502812526 0.1706107373853764 0  0.15 0.2 0  0.1595491502812526 0.2293892626146237 0  0.1845491502812527 0.2475528258147577 0  0.2154508497187474 0.2475528258147577 0  0.5404508497187474 0.2293892626146237 0  0.55 0.2 0  0.5404508497187474 0.1706107373853764 0  0.5154508497187473 0.1524471741852423 0  0.4845491502812526 0.1524471741852423 0  0.4595491502812526 0.1706107373853764 0  0.45 0.2 0  0.4595491502812526 0.2293892626146237 0  0.4845491502812526 0.2475528258147577 0  0.5154508497187473 0.2475528258147577 0  1.1 0 0  0 0.205 0  1.1 0.41 0  0.55 0 0  0.55 0.41 0  0.275 0 0  0.275 0.41 0  1.65 0.41 0  1.65 0 0  1.375 0 0  1.375 0.41 0  1.925 0 0  1.925 0.41 0  0.8250000000000001 0.41 0  0.8250000000000001 0 0  1.5125 0.205 0  1.7875 0.205 0  0.9625000000000001 0.205 0  1.2375 0.205 0  2.2 0.205 0  0.7560964076246335 0.2151713709677419 0  1.99375 0.2152743902439024 0  2.0625 0 0  0.6875 0 0  2.0625 0.41 0  2.2 0.3075 0  0.6875 0.41 0  1.7875 0.41 0  1.375 0.1486128048780488 0  1.5125 0 0  1.7875 0 0  1.5125 0.41 0  0.9625000000000001 0 0  0.9625000000000001 0.41 0  0.4125 0 0  0.1375 0 0  0.1375 0.41 0  0.4125 0.41 0  1.2375 0 0  1.1 0.1486128048780487 0  1.2375 0.41 0  1.65 0.1486128048780487 0  1.126715909090909 0.2793064024390244 0  1.676715909090909 0.2793064024390244 0  1.348284090909091 0.2793064024390244 0  0.34375 0.3032389320646208 0  1.894702181800738 0.1282910975492754 0  2.092797818199262 0.1282910975492754 0  1.85625 0.3075 0  0.8630851210521902 0.286932093388664 0  0.89375 0.1025 0  0.35 0.1090282786671641 0  0 0.3075 0  0 0.1025 0  0.6526217841291382 0.288229645480046 0  0.7562500000000001 0.09660248895515888 0  0.6568633732316684 0.1557582854763441 0  2.099172119769978 0.25625 0  1.002356446954348 0.1010393851523063 0  1.99375 0.08395950269330846 0  1.459960956013612 0.3075 0  1.569025960719943 0.2986889805672169 0  1.03125 0.3278689922742084 0  0.75625 0.3247156761655783 0  1.959375 0.3126371951219512 0  1.749222215368287 0.1025 0  1.275777784631713 0.1025 0  2.2 0.1025 0  1.225938124459196 0.3075 0  1.550777784631713 0.1025 0  1.44375 0.07430640243902442 0  1.16875 0.07430640243902437 0  0.3528655045338512 0.2063263890916129 0  0.5890337614812103 0.08775733857679162 0  0.8504912436891263 0.190072835691683 0  1.899250267340833 0.2229966846119207 0  0.1020898364287272 0.3140258291809757 0  1.766482954545455 0.2934032012195123 0  1.051658316544432 0.2265720188842194 0  0.2 0.3400647632937836 0  1.421109702350723 0.2261157654379721 0  0.4812500000000001 0.41 0  0.4324401666997539 0.3216425986889796 0  0.098916018031319 0.09171660955420841 0  0.9508742791313441 0.2921736960864468 0  2.13125 0 0  2.118919042110979 0.3422084711244843 0  1.30625 0.41 0  0.20625 0 0  1.597888256393107 0.2173787389261347 0  0.4812500000000001 0 0  0.4324082967851086 0.08384041677422771 0  1.829299675393195 0.07400700849299596 0  0.568219932524165 0.3212274660843853 0  1.71875 0.41 0  0.268005226542646 0.08512186835670006 0  1.16875 0.41 0  2.038220665644273 0.332420740103091 0  0.6678017527842831 0.07701763866051195 0  0.89375 0.41 0  0.5111435174287687 0.07335351331957608 0  0.176193934632343 0.0734896648625108 0  0.07390688010811153 0.1697064032433452 0  0.05452951551825875 0.25625 0  0.61875 0.41 0  1.452769549894695 0.1548122580621249 0  1.369219062229598 0.07430640243902442 0  1.30625 0 0  1.720943423819132 0.1714577452753128 0  1.157188124459196 0.205 0  1.094219062229598 0.07430640243902437 0  1.304056576180868 0.1714577452753128 0  1.67579304192913 0.07430640243902437 0  0.2672907219039591 0.3037570723459566 0  1.209670467133757 0.1362100266964769 0  1.58125 0 0  1.03125 0 0  0.06875000000000001 0.41 0  0 0.35875 0  1.58125 0.41 0  1.631724228912893 0.3381867502687533 0  0.8240147050827157 0.1225233169495944 0  1.825608881788174 0.14499488549201 0  1.85625 0 0  1.44375 0 0  1.44375 0.41 0  1.85625 0.41 0  2.13125 0.41 0  0.7562500000000001 0.41 0  0.7562500000000001 0 0  0.89375 0 0  0.34375 0 0  0.34375 0.41 0  0.20625 0.41 0  0.06875000000000001 0 0  1.16875 0 0  1.03125 0.41 0  0.61875 0 0  1.71875 0 0  1.99375 0 0  1.99375 0.41 0  0.3972301426712326 0.2593842555611471 0  1.340625 0.3489494290853124 0  1.134375 0.3489494290853123 0  1.700180620188976 0.3438659752031281 0  0.5003922072260507 0.341765274319271 0  0.6212513815748759 0.2209216137134851 0  0.6885607720119526 0.215393731583638 0  1.033412357328477 0.1612902025713047 0  2.135782184673599 0.07126652247502523 0  1.668441847249787 0.2129203728327609 0  1.295782514339747 0.2378437748815763 0  1.409375 0.3520314716057996 0  2.129248544730567 0.1906135162504124 0  2.060771381434487 0.1989445750470348 0  2.013252586573865 0.1496169464686054 0  1.942766402200229 0.1734448904596831 0  1.895522487186454 0.06076163953489683 0  2.069553871656643 0.06605731020975725 0  0.9281250000000001 0.3539050257418612 0  1.274680914880868 0.3520219391081363 0  0.3030138498135347 0.2488370856812789 0  0.8223773249563684 0.341761430177996 0  0.9018164060227267 0.2326477848736739 0  0.8143027982392851 0.2440265179987191 0  0.7225087161029304 0.2699907246386231 0  1.614713220494657 0.09473434380863296 0  0.378125 0.3566194660323104 0  0.309375 0.3566194660323104 0  1.72990325744076 0.2380068107952482 0  0.6915936999299305 0.3429472631234433 0  0.6268087624932918 0.3466455500035671 0  1.356580098625191 0.2120393231351682 0  0.3060160055995138 0.1590148921620778 0  0.3954648733249218 0.156380553890791 0  2.034370752044885 0.2668681600792073 0  1.51768709249349 0.3426260931494756 0  1.561883724969884 0.1650446847858835 0  1.197344062229598 0.2523725417393646 0  0.9281250000000001 0.05124999999999999 0  1.804085235518364 0.3468178408964637 0  1.817887819205233 0.2589243285818559 0  0.9107805776841645 0.1653834539923287 0  1.905897727272727 0.3485060975609756 0  0 0.05125 0  0.844212276491354 0.0614201194265309 0  0.378125 0.05244637078450034 0  1.008571329007178 0.2705955969954818 0  0.7724048032149464 0.1559079561351474 0  0.7203054377831548 0.04941826955193545 0  1.192836486056382 0.3562350748565544 0  0.5967108020713719 0.1479294686523888 0  1.28257088594801 0.2944411014911587 0  0.7041890234548132 0.1222025174424443 0  1.474860187679412 0.2504218616229368 0  1.406767003493824 0.2829282258560709 0  0.3201325899091991 0.05890121548989159 0  0.5979220912872258 0.2727591995766724 0  1.845656689180403 0.1998310418452388 0  2.144958525570388 0.2909790873294231 0  2.2 0.15375 0  1.57794966442982 0.3540357145964566 0  0.9483181579620558 0.1214693369582054 0  0.0496154796471391 0.333125 0  1.508991196088596 0.1421783375065625 0  0.09776612425612034 0.2204896805326566 0  1.50436820029908 0.06143401634903343 0  1.223857000523521 0.0823554862453532 0  0.2531953886959507 0.3582003209055908 0  1.153316824384777 0.1289850171317837 0  2.148922302309752 0.1258841779285271 0  1.621993280276081 0.2841214267927899 0  1.550118654119087 0.2461998729100966 0  1.327182649291491 0.1216967252533594 0  1.753125 0.04556020050186112 0  1.271875 0.04556020050186116 0  0.9824282234771738 0.05051969257615314 0  1.039510847866381 0.05683351822678641 0  1.94956388244759 0.1180512551534177 0  1.949997712993411 0.04965831614304109 0  1.771961817615021 0.1530278789497521 0  1.909246823951428 0.2812757146784527 0  1.101974016627944 0.2038045618205013 0  0.7906250000000001 0.0444674049654372 0  1.948575539857022 0.2445328248721197 0  1.697271520964565 0.1233917627620729 0  1.065625 0.3689344961371042 0  1.085849084308977 0.3170853572226867 0  0.9840604787624379 0.3582077516409966 0  1.577403511714593 0.05463601888079143 0  0.05622663515370135 0.05493816910862376 0  0.8762396958822678 0.3392249777398821 0  1.751571320346033 0.3651102912045228 0  1.055327852410105 0.111864799513911 0  0.1583785085108421 0.2994699345738728 0  0.1455283439499995 0.3542795598723423 0  2.2 0.35875 0  0.225705107073232 0.05084786997482401 0  0.1455852234589313 0.1166494778469164 0  1.466879772203159 0.3611261772912453 0  1.990280163552011 0.3564754268533217 0  1.17471064520912 0.2990917256188288 0  0.7221925551074015 0.1739659241003985 0  0 0.25625 0  2.2 0.25625 0  2.2 0.05125 0  0 0.15375 0  1.853978576207987 0.35875 0  0.21965520498276 0.1015543880164422 0  1.515638456102889 0.2882700110184686 0  0.09048297387599738 0.3637717362208066 0  2.150453692751374 0.2387066338105111 0  1.323782677156475 0.04897634338873398 0  1.409375 0.03715320121951221 0  1.406484531114799 0.1087852750766809 0  1.134375 0.03715320121951218 0  1.627401732573545 0.04552157221025036 0  0.446875 0.3713289093361426 0  2.045405893604797 0.1105340662939892 0  1.255408269734577 0.1577307500159216 0  2.028125 0.03707597992059326 0  0.04420832937638274 0.128125 0  0.5817551710628505 0.3702615006034757 0  0.1197849154434487 0.2663398672460083 0  1.248258025468107 0.2565907092181813 0  0.1300647302703173 0.0508462728378621 0  0.7738123537510222 0.2761231499240648 0  1.203125 0.0366132337404304 0  0.5444207041612499 0.111205399508622 0  0.8016457771828226 0.1964238426015905 0  2.072662025974815 0.2975086504196739 0  0.4019040438866802 0.2103993403217561 0  0.4677372330974851 0.04827477407630658 0  0.8677218578847617 0.1432970430140788 0  1.058011122005847 0.2758866204059919 0  0.4429405887974043 0.2746184809910084 0  0.5843750000000001 0.03726989681835222 0  0.6318596133730142 0.1128692182767254 0  0.4862628454464408 0.2957029785303028 0  0.7805186758662764 0.3673578380827891 0  1.887722846421017 0.1760882698830035 0  0.3498893058880703 0.256189258793856 0  1.472640588990488 0.1118278026240017 0  1.865937103925594 0.2604137786483804 0
[...]
<PointData  Scalars="f_43"> 
<DataArray  type="Float64"  Name="f_43"  format="ascii">4.4312017344496080e-01  4.7364018111412709e-01  9.9395867217584506e-10  1.1962874732854447e-09  -3.4115811313798144e-01  -3.0503130426979203e-01  -3.2792876278767075e-01  -4.9540319745875322e-01  -9.1271488144777424e-01  8.8311893140954156e-01  2.0170191892143601e+00  4.2066891615629975e-01  -1.1378559410476250e+00  -4.8820239568474444e-01  -2.5907471403842591e-01  -2.3463028221816210e-01  -2.6973513583178860e-01  -4.3861852798626316e-01  -1.1069850229152194e-01  -8.8625049030019470e-02  -2.7218376980408032e-01  -1.1990131894465565e-01  -5.1447635281406924e-02  -5.0057419328370634e-01  5.2035149302327678e-03  7.8523803297883477e-01  8.9980006596938195e-03  -1.8209424574936217e-01  -1.7747488227962549e-01  2.0727283973708426e-02  4.1368711713418604e-02  2.6011948676913477e-02  3.4094843442684680e-02  3.1677946632214432e-02  3.1308876320750571e-02  1.6898802294296498e-02  2.2042329615431022e-02  -7.0524050742255373e-02  -6.6181199450253206e-02  3.3630368475737166e-02  2.6293662448591996e-02  3.4340301747310849e-02  2.7692922627885492e-02  2.6416397276262284e-09  -4.2442507246389725e-02  1.3957519587859141e-02  9.7761122699421884e-03  -1.3183642103482140e-01  7.8231894813096895e-03  1.7251049646043337e-09  -1.2841227563030069e-01  2.7925153743515889e-02  3.0899617565104429e-02  3.1729861266087837e-02  2.6071244850909642e-02  3.6347455989685078e-02  -1.7928482304636045e-02  -2.6634682906181577e-02  -1.7291023906406372e-01  3.9038756617477188e-01  3.6788394074719094e-01  -1.5620169614185353e-01  2.9207877254664078e-02  2.2343566649050507e-02  1.7941263877221079e-02  3.4062436482964996e-02  2.2090734768201156e-02  2.4238526493054250e-02  3.0617176117371955e-02  -2.3526741716766311e-01  1.7580864215049972e-02  7.8584014288119036e-03  2.7360192261963574e-02  -1.7711242678686935e-02  -1.0331306337563876e-02  -2.7513089680709391e-01  5.3971119723810013e-01  5.7357567928878173e-01  -1.6727013228263374e-01  -8.0202339539756071e-02  -1.8679079621422276e-01  2.2340805290841097e-03  2.4326491121744302e-03  1.3784025834089894e-02  3.8969023049004216e-02  3.1786291078670204e-02  3.8018155864681397e-04  -8.5787893939839696e-02  1.9467065150818655e-02  2.9476603713650823e-02  3.3984150968011974e-02  -1.2922546225395014e-09  1.8933723369306925e-02  3.2705606035453916e-02  2.8579313329815323e-02  1.8545911625883107e-02  -3.3401497300972427e-01  -2.0043563366573625e-01  2.5864693306421164e-02  2.2524731431952501e-02  4.8317101811625796e-01  2.6955571431596083e-02  3.4487760021304485e-02  1.7157097307677097e-01  3.7631204937664649e-02  -1.7873121123335184e-01  -1.9427960805896277e-01  5.1216991495246678e-01  -1.2355626798991716e-03  5.3408381471761806e-03  2.3935521278844220e-03  2.2960032567331600e-02  2.1813918425051662e-01  2.8656485787887126e-02  -1.8735201174382021e-01  -1.9281251183440296e-01  2.2418716457398676e-02  -2.0257738838234324e-01  2.6017930991974875e-02  -1.2864284270422929e-01  1.5584849584884881e-02  9.8974689122089503e-03  -1.4433003352071708e-01  -4.8156212362259226e-02  -2.0210193452847844e-01  2.3478037910307481e-01  9.1772532669414053e-01  7.4025979988173907e-01  -1.5797130236839638e-01  2.8911017052564249e-02  3.1859662581915950e-02  3.3158208253511928e-02  3.0498446492047183e-02  2.8358421491730703e-02  5.1504417015733215e-03  3.4218922871144676e-02  3.3647378241421354e-02  -1.6671320167952958e-01  3.1217142442251926e-02  3.4358257474589753e-02  -5.7221912137311081e-03  4.3095391401562777e-01  4.5529332823639962e-01  3.0612577866968881e-02  2.5377308164089615e-02  -1.7725940844536565e-02  2.1831921880906581e-02  2.0868900913461969e-02  3.0078891323354378e-02  3.7343486619140907e-02  2.6824427995019655e-02  2.7982289068490497e-03  -9.7459777588339347e-02  -9.8575324517011065e-02  -3.7864821737509539e-02  -1.1706024733197327e-01  -8.7117935611784880e-02  2.1775999585111125e-01  4.5932189992340178e-01  1.8212301192242410e-02  -5.9579449151276965e-03  -1.5985171013553406e-01  3.0964468395458241e-02  1.3612695403121692e-02  1.5206477401206489e-02  -3.1842424854703538e-01  2.6133775315728199e-02  1.5085449698815789e-02  2.4101757055350243e-02  -1.9215544641098967e-01  -2.2093471073295226e-01  -1.3232691499108309e-01  2.2368838196767764e-02  5.1501000061482003e-03  2.5088530810387082e-02  2.7200934009363412e-02  3.5514641239324497e-02  2.0902648850309310e-03  6.5315804221728942e-03  1.3014704503097206e-02  1.5931932500552880e-02  1.7932624422137340e-02  9.3161107684814996e-03  -3.5215793912610996e-02  1.8882953145687390e-02  -3.3299344204673431e-01  -6.2841050440772664e-02  2.4936213321903180e-02  -7.5671718512385650e-03  -9.2700185109251446e-02  3.4818924516534205e-02  -1.4702232592723999e-01  -6.4046388057231257e-02  2.5772154757389171e-02  -1.2419620310517059e-01  -1.5911002770466551e-01  3.3089190705589619e-02  -3.2974640907835295e-01  -3.4945297587193203e-01  9.1818990514575746e-03  3.7094968992021075e-02  3.3124523765637598e-02  2.1712616333888848e-02  -2.3622238880737393e-02  2.8441959479221696e-02  2.8095459894712523e-02  3.2665790269387533e-02  2.4094092594078673e-02  4.8656837419390758e-01  -5.0980814217655400e-02  -1.6867266233875297e-01  2.0996559537760993e-02  -3.1976045279574226e-02  -1.1233316958048666e-01  1.6747550170303636e-02  -2.3456511443682748e-01  2.2127628841783979e-02  -1.1981433532445958e-01  3.8494051100846832e-02  3.6245815976969319e-02  -1.1194610506463742e-01  -2.2815610417771806e-01  2.2602721843433468e-02  6.5437497793481374e-04  -2.3310458948487915e-09  3.0716338324510987e-02  8.9783556092432500e-03  4.7870786188112230e-01  3.1093139886333804e-02  1.1373500804533923e+00  3.0374733268427070e-02  2.8916265981181528e-02  5.1367466987584542e-02  2.4189494810716371e-02  4.1664848180598107e-03  2.6194507474694224e-02  3.2810917494544241e-02  3.3421890992356193e-02  2.8768079852118145e-02  3.2806305723206704e-02  -1.1848237487451646e-02  -3.5856381486274219e-03  1.5528412341520029e-02  1.5599609153087004e-02  2.7268817599197515e-02  2.3997174687377769e-02  2.9353884240411184e-02  -7.8950368701310780e-02  2.0514375865689632e-02  3.2529901878372777e-02  3.3291714941181896e-03  1.3130136375514254e-02  -1.8408542201854276e-02  3.4323823988295095e-02  4.7974179469039557e-01  -4.5742557476907926e-02  2.6768445609887934e-02  9.4010315165943010e-03  2.5085474170899863e-01  3.4226498444043468e-01  -6.0388325788313644e-09  1.1988348600344201e-01  3.5818249069159552e-01  3.8611551148269682e-02  1.5696657468752727e-02  1.9956578954289924e-02  -9.2244203361887975e-02  6.9094864755459373e-01  1.7251049646043337e-09  1.0073276517962042e-09  7.1717359809827907e-01  2.7333618599568486e-02  -1.1916837500911866e-01  3.6563792346691604e-02  4.2230978490213167e-01  4.9858429347844852e-04  3.3677630649916170e-02  3.0068886983144399e-02  2.9985233330351059e-02  1.0888652852059899e-02  3.4778000844416963e-02  -1.7203480006118493e-01  1.0891378808430999e-02  3.4491332588899304e-02  1.1773700306569572e-02  6.6040026480881819e-01  -1.7051554007286340e-01  6.8662447124325354e-01  2.2607483736519430e-02  3.9593705589686146e-01  -5.1230984236870517e-02  2.4293014801012772e-02  -2.5731694178209885e-01  -1.7280255182384452e-04  5.6174539095657523e-03  -3.1242053162714223e-01  -1.8515614071308320e-01  1.6806803240632051e-02  2.1934083497148930e-02  -1.9417017606323606e-01  -1.7283518329103831e-01  -1.9037838431444892e-01  -2.0284301626084195e-01  -8.4231333149199117e-02  1.7510616965096298e-02  -3.3804197599950797e-01  2.9253061527274710e-02  2.6637047485058390e-02  2.0168773882250978e-02  3.3899142874193759e-02  -1.0995882864009936e-01  3.1708992498201860e-02  -1.1258345772927154e-01  -1.5577409007611073e-01  -1.0451695298688342e-01  3.2717466604394563e-02  -2.0442232954019546e-01  -1.7829562782437816e-01  2.5149002132797565e-02  -2.6987521545538790e-01  -2.1914236045158558e-01  2.7713528313004058e-02  7.1002363137967015e-03  3.2208115780265716e-02  -3.6154691791849908e-02  1.1375334514804670e-02  -3.2556125370648670e-01  -3.3710872940148884e-01  3.4413609086174475e-02  -3.3982430346758624e-01  9.2515283358840372e-01  2.8161171225599278e-02  8.6036630841155803e-01  1.5197782991059961e-02  1.0938335886898496e-02  -1.9353903149016111e-02  7.2149069072184309e-04  4.9110479743826431e-03  6.1814938518268874e-03  -3.7583340190353305e-03  2.7436413969517941e-02  2.7811814627622649e-02  -1.3821536414209137e-01  -2.6838230312366568e-01  2.5828962193094922e-02  -5.9029920579961960e-02  1.4067445268868774e-02  3.6390747311799913e-02  3.1065965256551187e-02  3.0492760066445950e-02  3.0576602527249773e-02  -1.8094552973122932e-01  -1.7793194550679431e-01  3.3785894317921665e-02  3.2846147622896421e-02  3.1708124032079996e-02  3.3521718133258504e-03  1.3353914650372947e-03  4.4062684737067187e-01  -2.8189711124951655e-01  -1.7524142010095195e-02  2.4270838612946405e-02  2.5295588734817378e-02  1.9244801234165328e-02  -5.9297351130144442e-02  3.3207784855806576e-02  2.0214854184943072e-02  -3.4709014671835021e-02  2.9428069897471737e-02  2.7852798913723862e-02  2.5428516991198177e-02  3.1419420741810333e-01  2.4808484653643485e-02  -1.8733270772060107e-01  -1.8525467173019430e-01  7.3645596956595249e-04  3.0285550155224900e-01  1.0342087881687095e-02  -7.4361940388120691e-03  3.2312707430530524e-02  -2.2857392210361011e-01  1.7293606608442532e-02  6.7669786300281701e-03  2.9540802860719612e-02  2.8244182092453243e-02  -2.4744314603986262e-01  -1.4078981932058632e-01  2.4698068079586251e-02  1.3717119601301866e-02  2.4493807837585490e-02  2.7154952576208098e-02  2.9215921408609898e-02  2.7285893210213085e-03  4.3532662291336294e-01  2.4270398856853653e-02  -1.3160815014857635e-01  -1.8861383461768669e-01  -1.0635732487432234e-01  1.3863105956854086e-02  -3.1847837966276121e-01  2.4794773142292434e-02  -5.1288072054633961e-02  2.0541383246290325e-02  1.8682172202076658e-02  1.6174429802509098e-02  -1.0015199072906992e-02  3.0509537003317225e-02  3.1769695437840834e-02  3.3729678215251878e-02  3.4224951534389376e-02  4.7096373174515344e-01  4.4347364818422497e-01  1.0348734272388140e-02  2.9189659361179003e-02  -6.0113214429328037e-02  -5.4535623321494330e-02  1.0611239077748622e-02  1.0945767666642112e-02  5.7555597658227287e-01  -2.2110742095604854e-01  7.1203296616648926e-01  -1.5714180866215380e-01  2.6987621427475458e-02  -7.5633813819303952e-02  -2.0165058315949426e-02  -2.3875822526941198e-01  3.0167355609060396e-02  7.8137412214787505e-01  -1.6665961448664446e-01  1.1613148816858331e-02  3.8340833577987926e-02  2.7308893672999562e-01  3.6538648248733846e-02  6.1603210778230011e-01  3.2161049117503580e-02  -1.0922428983433065e-01  2.6810139308932113e-02  2.9541996171515403e-02  3.0592185481606294e-02  3.3985765798277862e-02  3.1709084018892948e-02  3.2197471478219448e-02  1.2593053298993627e-02  3.2967204096494306e-02  3.2964888292293874e-02  -1.7851733854736526e-01  1.4893686960079486e-02  -1.9158456941580515e-01  -1.4719706326629500e-01  2.5412015333195280e-02  3.2648969494718828e-02  5.4787578283372684e-01  2.8144288642699196e-02  2.3382001684355766e-02  2.5229133691093081e-01  4.5451457611027479e-01  -1.5937009868638257e-02  5.1691995477276464e-01  2.6619257641631550e-02  -4.3995439792774940e-02  3.2497870621724302e-02  -1.8680695500224107e-01  3.5440090399936522e-02  2.3397514433005792e-02  -1.6073143994670039e-01  -4.6654931164255918e-02  4.3419399770872518e-03  9.3531042952350874e-03  3.4541352617867720e-02  2.3634803055353967e-03  -2.4978934258732904e-02  6.9004553553550637e-04  3.6822409513801758e-04  2.7487470194671616e-02  3.2651491005055822e-02  -3.2455757321607770e-01  2.9690414002594222e-02  1.0684898087451431e-02  3.1485855426108267e-03  6.0340091765992247e-03  1.6825413138188111e-02  3.7458294805980887e-03  2.5463147803662541e-02  1.9678714164655952e-02  2.4491949612388594e-02  1.4761352279842595e-02  -1.8467558132013104e-01  -1.7893230565192458e-01  1.1629677754536832e-01  -6.4741550690977326e-02  -9.6859391082754626e-02  -1.8119179027388457e-01  -1.5721554264510229e-01  1.3818428013076312e+00  -8.2518765553222934e-03  1.7485454461992289e-01  1.5550825643155604e-02  1.3204237592190150e-02  2.2428956436462717e-02  2.7071336919525169e-02  3.0992840666093542e-02  1.8648709893723477e-02  3.0665049090097193e-02  5.9733714158511919e-03  1.6745998458226583e-02  -3.0734731581253627e-01  -1.8355927804699060e-01  1.9425211235712062e-02  -3.2042473308028296e-01  -2.4755981646120656e-01  2.9465951983587847e-02  -2.7275381310293129e-01  -3.3352808913878357e-01  3.6067438608484111e-02  2.5515948090967099e-02  1.3664747025730272e-02  1.1039449420544240e-02  1.9302180729348289e-02  1.9965855799521575e-02  -2.0706056860559924e-01  1.1731662831497182e-02  2.1649374121521747e-02  2.9181321014930449e-02  1.7800839101910076e-02  3.2803210372762355e-02  2.8026203778825365e-03  7.6384404836776941e-03  3.0477719324423180e-02  3.7820571775562604e-02  2.7135147367576617e-02  2.6102108212285226e-03  2.8685834214552331e-02  -1.1496390605594974e-01  -2.6746328473618287e-02  -3.7256440897642996e-02  3.5078222102178550e-02  1.1496063589103144e-02  1.3051832809774628e-03  -5.3179413093306445e-04  -1.7095032648212671e-01  -1.5147212835879462e-01  -1.2805005881513160e-01  4.0794196499155150e-01  1.2906534710418022e-01  -8.3302226828072687e-02  -1.7405117003639356e-01  -1.7016134439352493e-01  -8.2143544780976824e-02  -3.3939418823093717e-02  -9.7690792151830477e-02  -1.4003499742532283e-01  -1.4398530615219002e-01  2.4343975701782868e-02  3.4632855959719565e-02  1.5286896304017529e-02  3.2157295681333638e-02  1.1779991409368860e-02  1.8790004104027081e-02  -1.1276975034802662e-02  2.5512309806096246e-02  -1.3380727053295080e-01  1.3061336839173333e-02  3.0906863084616650e-02  3.4364192252285305e-02  3.1494257998114762e-02  2.9139925183491518e-02  2.9551321851753493e-02  -7.2454934485140274e-02  -4.3214410551780762e-02  -2.9927041079213307e-01  -3.2014208592315041e-01  -1.3849213081586986e-01  1.2915993740881218e-02  3.1386278876508640e-02  2.7291549786626880e-02  3.4050618822510967e-02  4.1074355749774744e-01  1.7551989286756671e-02  3.5379073867408663e-02  3.8720763378882611e-02  -8.4113958219795198e-02  1.7620816251380598e-02  3.0591247444516700e-01  3.8368565228813628e-02  3.6456426136306688e-02  2.4802383139761942e-02  2.5308908382688733e-02  1.8916488193553412e-02  -1.2046704625471247e-01  2.5749116297747798e-02  -5.0006098600982866e-02  2.2425830091163133e-02  2.3759236879377494e-02  3.0628245976589429e-02  -1.4449784496533594e-01  2.2691065675155244e-02  3.7455909663828731e-02  7.5537749599194259e-01  -1.7411769846145633e-01  6.7625304153175062e-03  3.4604884877494947e-02  -2.4766954887049722e-01  -4.7623248548844720e-02  9.8072157832442657e-03  8.1079269686151149e-03  3.2614027397859818e-02  8.1903075049562513e-01  1.7612684099983573e-02  2.8809963137573967e-02  1.8131054202344041e-02  1.6563685916781670e-02  3.8620952776280087e-01  4.4545684427282932e-03  3.4717157095486856e-01  -2.8932412379049654e-02  9.4995197002013306e-03  -3.3620699650972735e-01  -3.4477724860156733e-01  2.8043421597101787e-02  -3.3672901894276913e-01  -1.4777885407572255e-02  2.8298938546912449e-02  2.3767580275076906e-02  2.6781062999563947e-02  1.5109138043383968e-02  1.4455650883871655e-02  5.0407950477001815e-04  1.1043816116777110e-02  -1.6609695014044013e-02  3.3654381015434359e-02  -1.7794971243646876e-01  3.4267027027450520e-02  3.4744875977463736e-02  2.3579740261065428e-02  -6.5247790925416077e-02  -1.0233014928457063e-01  -8.0264432925559792e-02  -5.5955107632204772e-02  3.0090753023874428e-02  3.2215214247571317e-02  -2.4380615359068120e-01  -1.5225081836796270e-01  -1.7764286681735761e-01  2.9176430392461674e-02  6.0025745375902018e-01  3.1961588849626722e-02  1.2906235032962341e-02  -8.9991994631592284e-02  3.3369237731712881e-02  -2.1753536396706702e-01  2.5981760493258316e-02  -3.2724510392377515e-01  1.9457020920507700e-02  -1.3207027118436129e-01  -1.6141115002730944e-01  -1.9115353666158591e-01  2.1107758009807537e-02  3.2975904803762307e-02  3.3717167173838707e-02  2.7097444924809796e-02  1.8236855768922765e-02  -8.1434316287806049e-02  1.1407522208719998e+00  2.6776916190862598e-02  -1.0195166491730372e-02  -3.0085087898785784e-01  2.4723676405659454e-02  2.0968044187825351e-02  3.0968390846523322e-02  2.9053588278983699e-02  2.7958394440643207e-02  2.7738299265153480e-02  3.0424811018230588e-03  3.0799819158163416e-02  1.7315477550084186e-02  -2.1594816330127865e-02  -3.3912362146263884e-02  4.7404129651798105e-01  4.7230022991113652e-01  3.2714893643481090e-02  -2.5768971093402648e-01  1.7321976412984018e-02  1.0775977753832849e-02  3.2052302748158921e-02  7.8946417033587783e-03  2.0474434750895075e-02  3.3372243693085703e-02  6.2072822437713182e-01  -2.7431214919646719e-02  3.4086660959370234e-02  8.8460715203817181e-02  2.6223574081821927e-01  -1.0414272754587335e-01  1.4507271708015523e-02  2.7121313998260968e-02  -2.3183234736968197e-01  -2.1351232154016098e-01  -3.3017302459056147e-01  3.2523459203016455e-02  2.7493413930829918e-02  -2.4795084308012855e-01  4.5670602637433100e-01  7.6888415746721561e-01  7.4068673101628539e-03  -1.3066380244179615e-01  2.2838554325794298e-02  2.2321964372284391e-02  3.4450799979546837e-02  2.6009873273957922e-02  2.6416397276262284e-09  -1.9061142004884410e-01  2.4524709056055288e-02  3.1008729163750151e-03  -1.9729197374410518e-01  -1.8708375625918441e-01  5.6631352007389911e-03  -1.2524167858016530e-01  4.0753241656292333e-01  3.9239728153435732e-01  2.5073766153372531e-02  3.5697382856165111e-02  3.8439033656281013e-02  3.8314376605574171e-02  3.7111424845304865e-02  2.9629617298035787e-02  2.6792849626794929e-02  -1.6320065471766082e-01  3.4257435167006807e-02  3.8443886351169396e-02  1.0915721591279313e-02  5.6013095452445020e-03  -6.3517518596820408e-02  -2.0509027874175742e-01  2.1061313739945239e-02  -1.0917246886197295e-01  6.1552214342700293e-02  -1.2922546225395014e-09  2.1047533948767117e-02  2.4693833360045308e-02  2.0055488706161924e-02  -1.3562866656323358e-01  3.0572405331097487e-02  5.4840295249899409e-03  1.5489605283759644e-02  2.1441874321675061e-02  8.1961999474117198e-03  1.2222404403022444e-03  1.3663614318362322e-02  1.0581698660421701e-03  1.8519613156737220e-03  -5.9370043208020465e-03  2.9721152038462158e-02  2.4837459399142850e-02  -1.9554501873086973e-02  4.1163861562692283e-01  -3.2696974798009210e-03  2.7474737405243008e-02  -4.0939668140051524e-02  1.0254734551833334e-03  1.2103658441840158e-03  2.1156424527990185e-04  -1.8937881529703102e-01  2.5339746443154822e-02  1.6324289559110569e-02  2.4746874042415636e-02  -2.1128099927052624e-01  3.3401451720000676e-02  2.9867333693722097e-02  2.7118749583510945e-02  -1.7526791249149815e-01  -1.8748302558420252e-01  3.4260403524469886e-02  -1.9869976340060710e-01  -2.3105731774761737e-01  -2.2479827159543642e-01  2.7564650685190265e-02  2.0774086844812533e-02  3.3062381006543393e-02  -4.0498397450410434e-01  1.7133214880903452e-02  -1.2098868469988805e-01  3.4251319280439535e-02  3.3800569881732595e-01  -1.3597598391889750e-02  9.8024060650679732e-03  -9.7577241415629110e-02  2.6416397276262284e-09  1.0956895351460250e+00  8.9629552186644534e-01  -9.4232255978607907e-03  -3.9195087551534252e-02  -1.1814367902109878e-01  3.1039695097047224e-02  2.7760930583416953e-02  -1.0802981355617336e-01  1.6418984364084167e-02  -1.6605921294188128e-01  5.4039330372924788e-01  4.8588330040576594e-01  4.9042326289183469e-01  1.6008465665517307e-02  1.7509282546402493e-03  3.4977687243642377e-02  3.1344960052865432e-02  3.0058345648607605e-02  2.7343759814444875e-02  5.4651216664939450e-01  2.4266023589467882e-02  -3.5953064904700399e-01  3.3750012493507127e-02  2.4626632675868735e-02  2.7842960363637856e-02  1.6676056102666901e-02  1.6315928198239904e-02  -1.7801872192313631e-01  2.5434948144284496e-02  -1.8713327982873851e-01  2.8480866780016486e-02  1.632842519221