<?xml version="1.0"?>
<VTKFile type="UnstructuredGrid"  version="0.1"  >
<UnstructuredGrid>
<Piece  NumberOfPoints="2426" NumberOfCells="4534">
<Points>
<DataArray  type="Float64"  NumberOfComponents="3"  format="ascii">0 0.41 0  0 0 0  2.2 0 0  2.2 0.41 0  0.2404508497187474 0.2293892626146237 0  0.25 0.2 0  0.2404508497187474 0.1706107373853764 0  0.2154508497187474 0.1524471741852423 0  0.1845491502812526 0.1524471741852423 0  0.1595491502812526 0.1706107373853764 0  0.15 0.2 0  0.1595491502812526 0.2293892626146237 0  0.1845491502812527 0.2475528258147577 0  0.2154508497187474 0.2475528258147577 0  0.5404508497187474 0.2293892626146237 0  0.55 0.2 0  0.5404508497187474 0.1706107373853764 0  0.5154508497187473 0.1524471741852423 0  0.4845491502812526 0.1524471741852423 0  0.4595491502812526 0.1706107373853764 0  0.45 0.2 0  0.4595491502812526 0.2293892626146237 0  0.4845491502812526 0.2475528258147577 0  0.5154508497187473 0.2475528258147577 0  1.1 0 0  0 0.205 0  1.1 0.41 0  0.55 0 0  0.55 0.41 0  0.275 0 0  0.275 0.41 0  1.65 0.41 0  1.65 0 0  1.375 0 0  1.375 0.41 0  1.925 0 0  1.925 0.41 0  0.8250000000000001 0.41 0  0.8250000000000001 0 0  1.5125 0.205 0  1.7875 0.205 0  0.9625000000000001 0.205 0  1.2375 0.205 0  2.2 0.205 0  0.7560964076246335 0.2151713709677419 0  1.99375 0.2152743902439024 0  2.0625 0 0  0.6875 0 0  2.0625 0.41 0  2.2 0.3075 0  0.6875 0.41 0  1.7875 0.41 0  1.375 0.1486128048780488 0  1.5125 0 0  1.7875 0 0  1.5125 0.41 0  0.9625000000000001 0 0  0.9625000000000001 0.41 0  0.4125 0 0  0.1375 0 0  0.1375 0.41 0  0.4125 0.41 0  1.2375 0 0  1.1 0.1486128048780487 0  1.2375 0.41 0  1.65 0.1486128048780487 0  1.126715909090909 0.2793064024390244 0  1.676715909090909 0.2793064024390244 0  1.348284090909091 0.2793064024390244 0  0.34375 0.3032389320646208 0  1.894702181800738 0.1282910975492754 0  2.092797818199262 0.1282910975492754 0  1.85625 0.3075 0  0.8630851210521902 0.286932093388664 0  0.89375 0.1025 0  0.35 0.1090282786671641 0  0 0.3075 0  0 0.1025 0  0.6526217841291382 0.288229645480046 0  0.7562500000000001 0.09660248895515888 0  0.6568633732316684 0.1557582854763441 0  2.099172119769978 0.25625 0  1.002356446954348 0.1010393851523063 0  1.99375 0.08395950269330846 0  1.459960956013612 0.3075 0  1.569025960719943 0.2986889805672169 0  1.03125 0.3278689922742084 0  0.75625 0.3247156761655783 0  1.959375 0.3126371951219512 0  1.749222215368287 0.1025 0  1.275777784631713 0.1025 0  2.2 0.1025 0  1.225938124459196 0.3075 0  1.550777784631713 0.1025 0  1.44375 0.07430640243902442 0  1.16875 0.07430640243902437 0  0.3528655045338512 0.2063263890916129 0  0.5890337614812103 0.08775733857679162 0  0.8504912436891263 0.190072835691683 0  1.899250267340833 0.2229966846119207 0  0.1020898364287272 0.3140258291809757 0  1.766482954545455 0.2934032012195123 0  1.051658316544432 0.2265720188842194 0  0.2 0.3400647632937836 0  1.421109702350723 0.2261157654379721 0  0.4812500000000001 0.41 0  0.4324401666997539 0.3216425986889796 0  0.098916018031319 0.09171660955420841 0  0.9508742791313441 0.2921736960864468 0  2.13125 0 0  2.118919042110979 0.3422084711244843 0  1.30625 0.41 0  0.20625 0 0  1.597888256393107 0.2173787389261347 0  0.4812500000000001 0 0  0.4324082967851086 0.08384041677422771 0  1.829299675393195 0.07400700849299596 0  0.568219932524165 0.3212274660843853 0  1.71875 0.41 0  0.268005226542646 0.08512186835670006 0  1.16875 0.41 0  2.038220665644273 0.332420740103091 0  0.6678017527842831 0.07701763866051195 0  0.89375 0.41 0  0.5111435174287687 0.07335351331957608 0  0.176193934632343 0.0734896648625108 0  0.07390688010811153 0.1697064032433452 0  0.05452951551825875 0.25625 0  0.61875 0.41 0  1.452769549894695 0.1548122580621249 0  1.369219062229598 0.07430640243902442 0  1.30625 0 0  1.720943423819132 0.1714577452753128 0  1.157188124459196 0.205 0  1.094219062229598 0.07430640243902437 0  1.304056576180868 0.1714577452753128 0  1.67579304192913 0.07430640243902437 0  0.2672907219039591 0.3037570723459566 0  1.209670467133757 0.1362100266964769 0  1.58125 0 0  1.03125 0 0  0.06875000000000001 0.41 0  0 0.35875 0  1.58125 0.41 0  1.631724228912893 0.3381867502687533 0  0.8240147050827157 0.1225233169495944 0  1.825608881788174 0.14499488549201 0  1.85625 0 0  1.44375 0 0  1.44375 0.41 0  1.85625 0.41 0  2.13125 0.41 0  0.7562500000000001 0.41 0  0.7562500000000001 0 0  0.89375 0 0  0.34375 0 0  0.34375 0.41 0  0.20625 0.41 0  0.06875000000000001 0 0  1.16875 0 0  1.03125 0.41 0  0.61875 0 0  1.71875 0 0  1.99375 0 0  1.99375 0.41 0  0.3972301426712326 0.2593842555611471 0  1.340625 0.3489494290853124 0  1.134375 0.3489494290853123 0  1.700180620188976 0.3438659752031281 0  0.5003922072260507 0.341765274319271 0  0.6212513815748759 0.2209216137134851 0  0.6885607720119526 0.215393731583638 0  1.033412357328477 0.1612902025713047 0  2.135782184673599 0.07126652247502523 0  1.668441847249787 0.2129203728327609 0  1.295782514339747 0.2378437748815763 0  1.409375 0.3520314716057996 0  2.129248544730567 0.1906135162504124 0  2.060771381434487 0.1989445750470348 0  2.013252586573865 0.1496169464686054 0  1.942766402200229 0.1734448904596831 0  1.895522487186454 0.06076163953489683 0  2.069553871656643 0.06605731020975725 0  0.9281250000000001 0.3539050257418612 0  1.274680914880868 0.3520219391081363 0  0.3030138498135347 0.2488370856812789 0  0.8223773249563684 0.341761430177996 0  0.9018164060227267 0.2326477848736739 0  0.8143027982392851 0.2440265179987191 0  0.7225087161029304 0.2699907246386231 0  1.614713220494657 0.09473434380863296 0  0.378125 0.3566194660323104 0  0.309375 0.3566194660323104 0  1.72990325744076 0.2380068107952482 0  0.6915936999299305 0.3429472631234433 0  0.6268087624932918 0.3466455500035671 0  1.356580098625191 0.2120393231351682 0  0.3060160055995138 0.1590148921620778 0  0.3954648733249218 0.156380553890791 0  2.034370752044885 0.2668681600792073 0  1.51768709249349 0.3426260931494756 0  1.561883724969884 0.1650446847858835 0  1.197344062229598 0.2523725417393646 0  0.9281250000000001 0.05124999999999999 0  1.804085235518364 0.3468178408964637 0  1.817887819205233 0.2589243285818559 0  0.9107805776841645 0.1653834539923287 0  1.905897727272727 0.3485060975609756 0  0 0.05125 0  0.844212276491354 0.0614201194265309 0  0.378125 0.05244637078450034 0  1.008571329007178 0.2705955969954818 0  0.7724048032149464 0.1559079561351474 0  0.7203054377831548 0.04941826955193545 0  1.192836486056382 0.3562350748565544 0  0.5967108020713719 0.1479294686523888 0  1.28257088594801 0.2944411014911587 0  0.7041890234548132 0.1222025174424443 0  1.474860187679412 0.2504218616229368 0  1.406767003493824 0.2829282258560709 0  0.3201325899091991 0.05890121548989159 0  0.5979220912872258 0.2727591995766724 0  1.845656689180403 0.1998310418452388 0  2.144958525570388 0.2909790873294231 0  2.2 0.15375 0  1.57794966442982 0.3540357145964566 0  0.9483181579620558 0.1214693369582054 0  0.0496154796471391 0.333125 0  1.508991196088596 0.1421783375065625 0  0.09776612425612034 0.2204896805326566 0  1.50436820029908 0.06143401634903343 0  1.223857000523521 0.0823554862453532 0  0.2531953886959507 0.3582003209055908 0  1.153316824384777 0.1289850171317837 0  2.148922302309752 0.1258841779285271 0  1.621993280276081 0.2841214267927899 0  1.550118654119087 0.2461998729100966 0  1.327182649291491 0.1216967252533594 0  1.753125 0.04556020050186112 0  1.271875 0.04556020050186116 0  0.9824282234771738 0.05051969257615314 0  1.039510847866381 0.05683351822678641 0  1.94956388244759 0.1180512551534177 0  1.949997712993411 0.04965831614304109 0  1.771961817615021 0.1530278789497521 0  1.909246823951428 0.2812757146784527 0  1.101974016627944 0.2038045618205013 0  0.7906250000000001 0.0444674049654372 0  1.948575539857022 0.2445328248721197 0  1.697271520964565 0.1233917627620729 0  1.065625 0.3689344961371042 0  1.085849084308977 0.3170853572226867 0  0.9840604787624379 0.3582077516409966 0  1.577403511714593 0.05463601888079143 0  0.05622663515370135 0.05493816910862376 0  0.8762396958822678 0.3392249777398821 0  1.751571320346033 0.3651102912045228 0  1.055327852410105 0.111864799513911 0  0.1583785085108421 0.2994699345738728 0  0.1455283439499995 0.3542795598723423 0  2.2 0.35875 0  0.225705107073232 0.05084786997482401 0  0.1455852234589313 0.1166494778469164 0  1.466879772203159 0.3611261772912453 0  1.990280163552011 0.3564754268533217 0  1.17471064520912 0.2990917256188288 0  0.7221925551074015 0.1739659241003985 0  0 0.25625 0  2.2 0.25625 0  2.2 0.05125 0  0 0.15375 0  1.853978576207987 0.35875 0  0.21965520498276 0.1015543880164422 0  1.515638456102889 0.2882700110184686 0  0.09048297387599738 0.3637717362208066 0  2.150453692751374 0.2387066338105111 0  1.323782677156475 0.04897634338873398 0  1.409375 0.03715320121951221 0  1.406484531114799 0.1087852750766809 0  1.134375 0.03715320121951218 0  1.627401732573545 0.04552157221025036 0  0.446875 0.3713289093361426 0  2.045405893604797 0.1105340662939892 0  1.255408269734577 0.1577307500159216 0  2.028125 0.03707597992059326 0  0.04420832937638274 0.128125 0  0.5817551710628505 0.3702615006034757 0  0.1197849154434487 0.2663398672460083 0  1.248258025468107 0.2565907092181813 0  0.1300647302703173 0.0508462728378621 0  0.7738123537510222 0.2761231499240648 0  1.203125 0.0366132337404304 0  0.5444207041612499 0.111205399508622 0  0.8016457771828226 0.1964238426015905 0  2.072662025974815 0.2975086504196739 0  0.4019040438866802 0.2103993403217561 0  0.4677372330974851 0.04827477407630658 0  0.8677218578847617 0.1432970430140788 0  1.058011122005847 0.2758866204059919 0  0.4429405887974043 0.2746184809910084 0  0.5843750000000001 0.03726989681835222 0  0.6318596133730142 0.1128692182767254 0  0.4862628454464408 0.2957029785303028 0  0.7805186758662764 0.3673578380827891 0  1.887722846421017 0.1760882698830035 0  0.3498893058880703 0.256189258793856 0  1.472640588990488 0.1118278026240017 0  1.865937103925594 0.2604137786483804 0
[...]
<PointData  Scalars="f_43"> 
<DataArray  type="Float64"  Name="f_43"  format="ascii">4.2606869224282040e-01  4.5716171899458613e-01  -5.7280725118463861e-09  4.4449729541085812e-09  -3.5850080001825746e-01  -3.2175643330293152e-01  -3.4408977853116318e-01  -5.1157555847130987e-01  -9.2850968948441315e-01  8.6720106202834191e-01  2.0002923009071858e+00  4.0300598512344898e-01  -1.1558165292713931e+00  -5.0558069571548159e-01  -2.7477120746589501e-01  -2.5245692952681770e-01  -2.8994485342283305e-01  -4.6169487032631307e-01  -1.3021386659826134e-01  -1.0799302263781495e-01  -2.8866205032053627e-01  -1.3298717440063040e-01  -6.7117258596540927e-02  -5.1241598448627212e-01  -1.4467366233605401e-02  7.6846278231908849e-01  -4.2656318152824403e-03  -2.0096948439913387e-01  -1.9207050996325520e-01  4.3676072295379285e-03  2.4250558687347292e-02  2.7262233790692078e-02  1.4900510118699528e-02  3.0397747153339309e-02  -5.7504521523299183e-03  2.4833019067184030e-02  2.9485362920939118e-02  -8.4442670083211629e-02  -8.5930711023433443e-02  2.1024425529270582e-02  8.7770888364951723e-03  8.6016944426759619e-03  1.1041751028249433e-02  -7.3588253391031623e-09  -5.2768867994796347e-02  1.7814186960782526e-02  1.0010979655611620e-02  -1.4887471055413623e-01  1.2807251460306037e-02  2.8387139029475585e-10  -1.4445670589981194e-01  1.6633120374690613e-02  2.6769862569423489e-02  1.5633055745993593e-02  3.0019295423004487e-02  2.3910913717734069e-02  -2.4776507476763292e-02  -5.2582574605781709e-02  -1.9022131125559191e-01  3.7389467660549253e-01  3.5084734877317381e-01  -1.7239791627575876e-01  1.5469404700436283e-03  -5.9227437580533834e-03  2.1408414017497223e-02  1.2043623514883136e-02  2.0422879770882609e-02  3.0898726131073414e-02  -6.3972654324038732e-03  -2.5287745984761173e-01  2.5853382963011682e-02  9.8508208333659281e-03  1.3155255242814794e-02  -3.4687124008560784e-02  -2.4543689747904808e-02  -2.9101892039621596e-01  5.2268812638152529e-01  5.5706398092942655e-01  -1.8746094682005843e-01  -1.0086419554677602e-01  -1.9794829184767007e-01  5.2416473626540252e-04  7.7237304076732411e-04  1.3373326191487704e-02  3.6859482870502946e-03  3.2936030278062141e-02  -3.0333425426119335e-02  -9.9656461625275347e-02  3.1076647418473765e-02  2.9144668943503458e-02  1.3666389036400859e-02  1.3176397802766045e-09  2.7868572703806847e-02  1.1609352222631352e-02  2.6873882153584317e-02  -1.8492337876847492e-02  -3.5122236730603396e-01  -2.1831217615531476e-01  5.6867371979239375e-03  2.0730755147206018e-02  4.6611355764332324e-01  1.5242079623006961e-02  1.3846141652190962e-02  1.5445676846980752e-01  1.4027429414344679e-04  -1.9388867151340233e-01  -2.0892704273496601e-01  4.9569496582940237e-01  -3.1101126386733652e-02  5.8932253111623140e-03  7.0745950706925596e-04  5.8409709996428694e-03  2.0171619882099401e-01  1.7543433394117097e-02  -2.0572680712592870e-01  -2.1163210823975509e-01  2.9759373778590691e-02  -2.1826136308843960e-01  2.1050184959363009e-02  -1.4475304312098547e-01  1.9092340289806279e-02  1.9776423945935370e-02  -1.6102895887037441e-01  -6.5377237537605520e-02  -2.2131995810284477e-01  2.1836482779302652e-01  9.0109162683411126e-01  7.2330886121122884e-01  -1.7312382664133835e-01  2.8304246389002124e-02  3.2625719778585645e-02  2.2530156404999245e-02  2.4173647720185987e-02  7.2868412863128446e-03  -1.1240569383664694e-02  1.8746947886109568e-02  1.6691668570087227e-02  -1.8426313310653075e-01  -1.0122964612827824e-03  9.5707443683684425e-03  -1.1195175224089230e-02  4.1391184681364890e-01  4.3824221796849716e-01  3.1720049413446590e-02  3.0259150864245361e-02  -4.0592409407113950e-02  2.8191223595151645e-02  2.9790711729702653e-02  2.4956593761973244e-02  3.6599647032154697e-03  2.0542472168597618e-02  1.5181859301465408e-03  -1.1285896167042896e-01  -1.1645730036761962e-01  -5.3937825953656267e-02  -1.3362508291148797e-01  -1.0401257817506125e-01  2.0067210234253335e-01  4.4283255415181122e-01  -1.4772411468340445e-02  -3.3183569293277079e-02  -1.7796162241541344e-01  2.5491074976484084e-02  1.5556723749584389e-02  2.7056346235725771e-02  -3.3279694857153680e-01  -4.7960482238952216e-03  1.1393274175797377e-02  2.3644846091300940e-02  -2.0694100072266811e-01  -2.4143691946538279e-01  -1.5152019859605942e-01  1.6072295957089762e-02  6.4302285116848391e-03  1.7702276115787060e-02  4.4242146733141727e-03  -9.1016790971716263e-03  1.3134199129214812e-03  9.2743187622849749e-03  9.5838815744808212e-03  1.4802550791403149e-02  2.8728076092171369e-02  9.5641825291273956e-03  -5.6557304797111470e-02  1.6634027368055797e-02  -3.5180785610176002e-01  -7.5674009765784173e-02  -3.7785506981887402e-03  -1.1269511227098428e-02  -1.0428920919360994e-01  4.9761867236904692e-03  -1.6353830815536516e-01  -8.1195556002624888e-02  1.9820238712484124e-02  -1.4050413937027062e-01  -1.7491054024527117e-01  -7.2863373944452182e-03  -3.4467480483870694e-01  -3.6816531331814262e-01  1.8450530368467267e-02  2.6208607769463616e-02  5.5991552367374983e-03  3.0750277003157869e-02  -3.5462018749256446e-02  1.2949476593993633e-02  4.2909246437307300e-03  2.5315069599868050e-02  2.7229959656229444e-02  4.7008946045607763e-01  -7.1751691057030401e-02  -1.8560178389452389e-01  -9.1109866477037792e-03  -6.1208457905159004e-02  -1.2926961718391680e-01  2.6208950335524270e-02  -2.5142977300393804e-01  1.3706105564725202e-02  -1.3816828774966405e-01  1.8099866404252225e-02  -6.4404488708445212e-03  -1.2824232894676796e-01  -2.4773108938745766e-01  7.5783418455388383e-03  -1.8113111611652844e-03  5.1565479008862522e-09  3.4054678573801588e-02  5.7494058098050025e-03  4.6166138795698242e-01  2.0953270971038822e-02  1.1204682091823641e+00  1.7468378693767484e-02  -6.6138827651124237e-03  3.4207171563595547e-02  -1.0590930422264961e-02  5.8872537699298988e-03  3.2805324842286397e-02  3.0240740559939930e-02  2.5945574909928434e-02  2.9183754407794381e-02  1.2278508419918973e-02  -1.5220578372102620e-02  -6.9736542499994501e-03  1.7862939671619612e-02  2.1683794810911171e-02  2.7800320655384632e-02  2.4536852826045386e-02  1.2044237971684368e-02  -9.8213996534787101e-02  2.8421914298245466e-02  2.1503095638194827e-02  -2.0624615239236973e-02  -5.7327024594795136e-03  -4.7940330276801037e-02  7.3954691072534249e-03  4.6326126616023766e-01  -6.0538859190038076e-02  1.7756281329666199e-02  5.0647880673808088e-05  2.3368614202135593e-01  3.2521211572534731e-01  -5.1046466166151219e-09  1.0350432874187818e-01  3.4182862132522018e-01  8.5847512696807134e-03  2.9517795353250276e-02  2.6323728401587955e-02  -1.1115993816976846e-01  6.7401728284150608e-01  2.8387139029475585e-10  -1.0969965448254789e-08  7.0056056820661938e-01  1.7667945776365445e-02  -1.3542390379531799e-01  2.5191855775504927e-02  4.0526590468142520e-01  -4.6011347243196318e-03  2.7784708201627741e-02  2.9530704215356907e-02  3.0147809920184104e-02  -1.7439608287116080e-02  9.5267451866657971e-03  -1.8765602836358689e-01  9.5924708042645721e-03  1.3055823986752596e-02  1.1591825728759228e-02  6.4385680670978673e-01  -1.8519532126535573e-01  6.6952243428706271e-01  2.0991459644807354e-02  3.7945553262322385e-01  -5.7267544703395810e-02  -1.0654726061719445e-02  -2.7689861321703052e-01  -1.8933653830932720e-02  1.0962029957033799e-02  -3.2804390846187376e-01  -2.0352371517724283e-01  1.4131754936806103e-03  2.5737552507003859e-03  -2.0560474120951383e-01  -1.9155630384752331e-01  -2.0508748405314323e-01  -2.1694918471433972e-01  -9.8881241477184675e-02  1.9234861449266508e-02  -3.5756176864895634e-01  2.6152456872962748e-02  1.5783072861120139e-02  2.0664103610017196e-02  1.3558779696210249e-02  -1.2723415727195569e-01  -1.2395803678240383e-02  -1.2856070572027925e-01  -1.7358854728881207e-01  -1.2056481063314629e-01  1.1279409065228094e-02  -2.2597697100203049e-01  -1.9835319064609230e-01  2.3673904507651271e-02  -2.8547271870816904e-01  -2.3487941499034906e-01  5.1445122723068814e-03  7.8637299121723098e-03  5.6592104160506050e-03  -4.6436890953675154e-02  2.0483239373154508e-02  -3.4261425641817961e-01  -3.5294512174691511e-01  4.6974494282785864e-03  -3.5463506854776888e-01  9.0868853872310384e-01  1.0688764417004903e-02  8.4357296002583670e-01  2.5535595087655152e-02  -4.6366902745090359e-03  -4.1013459649605143e-02  -3.3095054758370142e-03  6.0613729042422442e-03  9.9069259416329838e-03  -3.4609417655674511e-02  -9.9873417749966192e-03  3.0237617519810779e-02  -1.5403247176626877e-01  -2.8694350426047377e-01  2.9629179146088386e-02  -7.3736262949776379e-02  2.5422638180514719e-02  -9.7070190932711329e-03  -2.2646466144684678e-03  2.0527683566102583e-02  6.7356320743000141e-03  -1.9553607097684061e-01  -1.9549399645804105e-01  2.9763344357156878e-02  2.0324653664656984e-02  2.4190496174102554e-02  3.6307751419491809e-03  -1.1393243878721866e-03  4.2357770321439209e-01  -2.9688815906443461e-01  -3.3851391508956448e-02  2.8197611229566249e-02  3.0072796479249264e-02  2.9265543583006898e-02  -8.0449680626293193e-02  1.1533916551775244e-02  3.1683253075595205e-02  -5.2809957477190229e-02  2.2143631996001282e-02  1.7351998154041395e-02  2.1087434303399284e-02  2.9772928022775963e-01  2.6064295469894003e-02  -2.0608659704046911e-01  -2.0423366313040936e-01  -1.1530731101270082e-02  2.8579919255091907e-01  1.1664370500692054e-02  -3.7207661550732941e-02  1.8160319532632758e-02  -2.4345214432183146e-01  2.4361041719196983e-02  9.7375595438316254e-03  2.2218391348902036e-02  3.1829895423796044e-02  -2.6448123087842457e-01  -1.6128867446248921e-01  8.1892762819514419e-03  -1.4894427265421008e-02  3.0282177262656647e-02  -5.9262103568002728e-03  2.9626946271901804e-02  4.0244293831282803e-03  4.1883009148070999e-01  1.5694159755337254e-03  -1.4854631013944675e-01  -2.0600096571363838e-01  -1.2108233152722613e-01  1.5435456915061591e-02  -3.3598441942556168e-01  2.5661733749569343e-02  -7.0280634789010615e-02  2.9945401411479378e-02  2.8275456734732130e-02  2.5024461808794380e-02  -1.6211436366307758e-02  1.9527940360455038e-02  2.4846655992783882e-02  1.6274346971189700e-02  1.0833705623679359e-02  4.5448310229063460e-01  4.2642179138264502e-01  1.9135501845787783e-02  2.8924213613733634e-02  -7.3702770102914941e-02  -7.0947275883311012e-02  -1.6389212153072846e-02  -2.0654980686363820e-02  5.5852901282723977e-01  -2.3641630251318743e-01  6.9551506493392601e-01  -1.7474149189993227e-01  3.0265529559789856e-02  -9.9877169231852470e-02  -4.7300522130697006e-02  -2.5679987379682506e-01  2.2143534063308278e-02  7.6473379080399184e-01  -1.8285566959643243e-01  1.0052875526175556e-02  4.9751649936759356e-03  2.5602543958267104e-01  2.6966800288025481e-02  5.9904227103672847e-01  1.3256958091405813e-02  -1.2733130117090383e-01  1.8614982855017188e-02  1.1825364427881756e-02  2.7024814350202337e-02  2.0668430153318120e-02  2.9734045596013042e-02  3.1323485807114332e-02  -6.4268336283134376e-03  2.0138377809352969e-02  2.3624046456055571e-02  -1.9424747067973200e-01  9.5255631022708488e-03  -2.1570827837212728e-01  -1.6470639360692141e-01  -1.1900610007339588e-02  6.1826103005687338e-03  5.3138293551339233e-01  3.3483833421955621e-02  2.8167108732697451e-02  2.3584871760917353e-01  4.3802997057581039e-01  -4.4243646152779648e-02  5.0043249293681635e-01  2.9640916710718158e-02  -6.9189692190789367e-02  2.6095993294225940e-03  -2.0552883255158819e-01  2.7825856110093725e-02  3.0313973325047681e-02  -1.7518499142722058e-01  -6.3332892683151287e-02  9.7189470024017406e-03  1.7554763833064705e-02  2.4697610973470407e-02  2.9531586313327131e-03  -4.4627700507468719e-02  -3.5943982129584451e-03  -2.1460147050838497e-03  1.5501612570405934e-02  1.1230227770478057e-02  -3.4204745962310112e-01  3.0760895284037786e-02  -5.0461298168678450e-03  4.0537075270798070e-03  7.9601647902403563e-03  2.0306035382218958e-02  3.4733265069182939e-03  1.6024534125438819e-02  2.8690504937110606e-02  2.0906707354886617e-02  -2.4488313233755688e-03  -1.9960512968194177e-01  -1.9403081430934085e-01  9.9911797665398969e-02  -7.7061421444064485e-02  -1.1454619611135534e-01  -1.9595495570040072e-01  -1.7339969188706567e-01  1.3651708991473190e+00  -1.1460331688622507e-02  1.5775622888294269e-01  1.8399475574617300e-02  9.1283241640931975e-03  5.2948345343135179e-03  -1.8674938304113354e-03  -8.4444636797578326e-03  1.7382816482022782e-02  1.2334204459201590e-02  8.5090880269849851e-03  2.2883355768306846e-02  -3.2676468904397443e-01  -2.0138027443716008e-01  2.1913870302714706e-02  -3.3664938249498988e-01  -2.6771965064930714e-01  3.3733849400594017e-04  -2.8417060137453520e-01  -3.5052649988758272e-01  -1.1219892043881819e-02  2.4092317610233616e-02  8.3676026757592975e-03  9.3655470144027482e-03  2.7979095363606172e-02  1.4875522139121739e-02  -2.2611155209362863e-01  2.5403186952635383e-03  1.0828111821025971e-02  2.3062446871948486e-02  -1.6465712517644178e-02  2.8539480298998731e-02  3.0553863811653061e-03  8.2573773639127938e-03  2.8728654138949587e-02  1.4005892657895784e-02  1.8163522753445106e-02  -1.9455753506648181e-02  2.8655509495806124e-02  -1.3213492966581078e-01  -3.8330554216511797e-02  -5.8929726550309369e-02  -3.5605994881746446e-03  -1.6221572072770037e-02  -2.8265853099143168e-04  -1.1618934496961133e-02  -1.8662227352614510e-01  -1.6833095675533394e-01  -1.4463974277305830e-01  3.9090744987311632e-01  1.1195255225492830e-01  -9.7770340602976680e-02  -1.9269525919116534e-01  -1.8488130912504336e-01  -1.0113015596673325e-01  -5.0988690314630027e-02  -1.1460869425461157e-01  -1.5713016064016197e-01  -1.5965493071846276e-01  -8.3972995200893748e-03  1.0761757968510983e-02  2.0102731436454562e-02  1.2895565288041807e-02  1.2154814246311355e-02  3.0057269845041385e-02  -1.5607836985318429e-02  2.1091863688189313e-02  -1.5073540503568156e-01  1.0746564106317179e-02  -5.4591105635545100e-03  1.3734105475289147e-02  1.2763510406363334e-02  2.9747002898884795e-02  -8.1559812685058544e-03  -8.6172847776253572e-02  -5.6533790074261868e-02  -3.1617167442759647e-01  -3.3948069173377748e-01  -1.5284983334958044e-01  7.5913345703218565e-03  -9.1462642111025654e-03  1.0982415017944099e-03  -1.6451938703931999e-04  3.9429510923998512e-01  2.3914856575269441e-02  3.0584379460946217e-02  1.7201402403989614e-02  -9.9661646253265110e-02  2.7017366881076702e-02  2.8860317225946508e-01  -2.4997956300205201e-03  -2.2334990494355046e-03  2.7724772299524959e-02  2.1082112149200714e-02  3.0640587685409680e-03  -1.3667993772542181e-01  1.9837919886175767e-02  -6.7286774368558150e-02  2.9437765023223705e-02  2.9350484347671076e-02  5.1138538823078134e-03  -1.6099752196273504e-01  2.8157927101897896e-02  1.8889419476071652e-02  7.3851863391272565e-01  -1.9127723984592770e-01  -1.7960842220973827e-02  8.7400756926247873e-03  -2.6101907677821584e-01  -6.7046847788852074e-02  9.8661013781362640e-03  9.3131286850499963e-03  1.3021133967001958e-02  8.0204180876499498e-01  2.5501614505271632e-02  1.4500543341350562e-02  2.0690671410994808e-02  2.0243172489675686e-02  3.6917259357740084e-01  7.7226032589343208e-03  3.3069294028929075e-01  -5.3982767821288261e-02  1.8853988319134072e-02  -3.5221586582329206e-01  -3.6187328052515771e-01  1.5591545679644015e-02  -3.5548689846467557e-01  -2.6336692403632112e-02  1.2104527754526750e-02  2.6995278989947257e-02  4.8423706038390702e-03  1.9229815130814388e-02  5.9074320985442828e-03  -1.5400831865984856e-03  1.0736848647600020e-03  -2.0143271554030871e-02  6.6805440172500504e-03  -1.9375574103713319e-01  6.2954029643564492e-03  9.2026487390837741e-03  2.7825279407064522e-02  -8.5400738709403637e-02  -1.1782476969773627e-01  -9.1030707936448935e-02  -6.0720979491083273e-02  2.4232214693339697e-02  3.1861075437773369e-02  -2.6366582559120677e-01  -1.6749045325512368e-01  -1.9316179587203328e-01  3.2004272317715667e-02  5.8381276565889462e-01  1.5755151809061698e-02  -4.2219623642172372e-03  -1.0645778867789273e-01  2.9815107621875999e-02  -2.3457924574448399e-01  2.2383052320497490e-02  -3.4132701243435865e-01  -9.7553762542116722e-03  -1.4875278752406290e-01  -1.7845832354628663e-01  -2.0882003626813400e-01  3.2176299497435647e-02  4.6695962633260492e-03  9.8866646573738445e-03  -2.4434560655188281e-04  2.8821643251939529e-02  -1.0065266143221357e-01  1.1236540122752914e+00  1.5836901818983118e-02  -2.1279670598112938e-02  -3.1493253170043484e-01  1.7276722872730150e-02  2.5779004038466707e-02  1.3320509039337500e-02  2.2726270325778012e-02  8.7758281490902274e-03  1.0669528390178736e-02  4.0393967359826652e-03  1.7779834718448181e-02  2.9923675654898039e-02  -3.0845570287591953e-02  -4.9697750655284097e-02  4.5756384271757006e-01  4.5582249246011147e-01  1.2420979615174790e-02  -2.7591187448308779e-01  2.8068720632942062e-02  -2.1461235305678356e-02  6.0216984585253824e-03  -2.2128104805481882e-02  1.2040377409242773e-02  1.5945505322519520e-02  6.0368327805087518e-01  -4.9563262062127134e-02  3.2900472461303981e-02  7.1276900667123139e-02  2.4514343700857130e-01  -1.2149043770437715e-01  1.3467096786809652e-02  -3.6422507034275897e-03  -2.4999936314560342e-01  -2.2639363911606547e-01  -3.4568301654772848e-01  5.6504952683111582e-03  1.7964952608949047e-02  -2.6717288541918122e-01  4.4021913775966026e-01  7.5200397008024888e-01  8.7997171097715116e-03  -1.4537199839250467e-01  3.0089081328768238e-02  2.6695679726500565e-02  8.0607314937066674e-03  1.8177507086240864e-02  -7.3588253391031623e-09  -2.0412597862086437e-01  3.2766043339089328e-02  3.4856924071370783e-03  -2.1210145849415774e-01  -2.0947958975229911e-01  1.0908117678486417e-02  -1.4210900729114539e-01  3.9048170845527769e-01  3.7531569670738213e-01  2.3259834448049830e-02  -8.4467699145027580e-03  1.0422080063801952e-02  1.2815562509463160e-02  2.1945394533514202e-02  2.5948558188957058e-02  1.7840344952050627e-02  -1.7975522212589631e-01  -9.1321786273008600e-03  -1.2308666879254614e-04  -1.4141897080512035e-02  -2.0364857731263081e-02  -8.4168978081400656e-02  -2.2097855600127214e-01  1.3506441214378244e-02  -1.2532534223233785e-01  4.5182443283083948e-02  1.3176397802766045e-09  2.1472421949139574e-02  1.0578758739636877e-02  1.3339876850781878e-02  -1.5233656310448293e-01  2.7713930969463178e-02  -1.4600171808437779e-02  5.0576935101070020e-03  1.9509838459952692e-02  6.3275046307978934e-03  -7.0605811810265833e-03  2.5097918284654366e-02  -1.5671791202894767e-03  -5.5228554058007785e-03  -6.9203751376948524e-03  2.7467297670151665e-02  3.0855068367523650e-02  -4.3942031312921070e-02  3.9514436808985476e-01  -1.0309822329303518e-02  1.6811314902302709e-02  -6.2057246732684715e-02  -1.9724486191964679e-03  -2.6561857722018599e-03  -2.8105845045041117e-03  -2.0843805979941318e-01  1.4793609136002557e-02  3.0313257159531745e-02  2.6625548607965333e-02  -2.2743578104879059e-01  2.1043153162865091e-02  2.7311305716347805e-02  2.9587051720807528e-02  -1.9352125373009499e-01  -2.0613578501195212e-01  6.3408183637509606e-03  -2.2054346023356985e-01  -2.5170797776809578e-01  -2.4201385631484343e-01  -7.7739561794920092e-03  -1.4882170228449740e-02  8.1139553468283342e-03  -4.2112409455317673e-01  2.8890878239432673e-02  -1.3788896701453038e-01  1.7179519889410480e-02  3.2096174745592210e-01  -4.2275335787066874e-02  -1.7219027996273405e-02  -1.1561778034174289e-01  -7.3588253391031623e-09  1.0789583100043392e+00  8.7941026390123356e-01  -4.1049870711246828e-02  -5.9515831815592175e-02  -1.3375573817460071e-01  3.4599026602060344e-02  3.2329098443226373e-02  -1.2382519936198123e-01  2.3815160610719949e-02  -1.8333920620933611e-01  5.2336515293123609e-01  4.6884015261817524e-01  4.7337681944896393e-01  1.5525439043042905e-02  1.6842254423492732e-03  2.6395511302490893e-02  3.1648667195455463e-02  2.7063760582323369e-02  -7.2933640697599124e-03  5.3029263960701623e-01  -1.4417933367275938e-02  -3.7688004133028846e-01  4.2728583799856307e-03  7.0968672459848503e-03  1.5236426326539159e-02  2.5825652302544081e-02  2.3633967204791891e-02  -1.9470006736109993e-01  2.0