<?xml version="1.0"?>
<VTKFile type="UnstructuredGrid"  version="0.1"  >
<UnstructuredGrid>
<Piece  NumberOfPoints="2426" NumberOfCells="4534">
<Points>
<DataArray  type="Float64"  NumberOfComponents="3"  format="ascii">0 0.41 0  0 0 0  2.2 0 0  2.2 0.41 0  0.2404508497187474 0.2293892626146237 0  0.25 0.2 0  0.2404508497187474 0.1706107373853764 0  0.2154508497187474 0.1524471741852423 0  0.1845491502812526 0.1524471741852423 0  0.1595491502812526 0.1706107373853764 0  0.15 0.2 0  0.1595491502812526 0.2293892626146237 0  0.1845491502812527 0.2475528258147577 0  0.2154508497187474 0.2475528258147577 0  0.5404508497187474 0.2293892626146237 0  0.55 0.2 0  0.5404508497187474 0.1706107373853764 0  0.5154508497187473 0.1524471741852423 0  0.4845491502812526 0.1524471741852423 0  0.4595491502812526 0.1706107373853764 0  0.45 0.2 0  0.4595491502812526 0.2293892626146237 0  0.4845491502812526 0.2475528258147577 0  0.5154508497187473 0.2475528258147577 0  1.1 0 0  0 0.205 0  1.1 0.41 0  0.55 0 0  0.55 0.41 0  0.275 0 0  0.275 0.41 0  1.65 0.41 0  1.65 0 0  1.375 0 0  1.375 0.41 0  1.925 0 0  1.925 0.41 0  0.8250000000000001 0.41 0  0.8250000000000001 0 0  1.5125 0.205 0  1.7875 0.205 0  0.9625000000000001 0.205 0  1.2375 0.205 0  2.2 0.205 0  0.7560964076246335 0.2151713709677419 0  1.99375 0.2152743902439024 0  2.0625 0 0  0.6875 0 0  2.0625 0.41 0  2.2 0.3075 0  0.6875 0.41 0  1.7875 0.41 0  1.375 0.1486128048780488 0  1.5125 0 0  1.7875 0 0  1.5125 0.41 0  0.9625000000000001 0 0  0.9625000000000001 0.41 0  0.4125 0 0  0.1375 0 0  0.1375 0.41 0  0.4125 0.41 0  1.2375 0 0  1.1 0.1486128048780487 0  1.2375 0.41 0  1.65 0.1486128048780487 0  1.126715909090909 0.2793064024390244 0  1.676715909090909 0.2793064024390244 0  1.348284090909091 0.2793064024390244 0  0.34375 0.3032389320646208 0  1.894702181800738 0.1282910975492754 0  2.092797818199262 0.1282910975492754 0  1.85625 0.3075 0  0.8630851210521902 0.286932093388664 0  0.89375 0.1025 0  0.35 0.1090282786671641 0  0 0.3075 0  0 0.1025 0  0.6526217841291382 0.288229645480046 0  0.7562500000000001 0.09660248895515888 0  0.6568633732316684 0.1557582854763441 0  2.099172119769978 0.25625 0  1.002356446954348 0.1010393851523063 0  1.99375 0.08395950269330846 0  1.459960956013612 0.3075 0  1.569025960719943 0.2986889805672169 0  1.03125 0.3278689922742084 0  0.75625 0.3247156761655783 0  1.959375 0.3126371951219512 0  1.749222215368287 0.1025 0  1.275777784631713 0.1025 0  2.2 0.1025 0  1.225938124459196 0.3075 0  1.550777784631713 0.1025 0  1.44375 0.07430640243902442 0  1.16875 0.07430640243902437 0  0.3528655045338512 0.2063263890916129 0  0.5890337614812103 0.08775733857679162 0  0.8504912436891263 0.190072835691683 0  1.899250267340833 0.2229966846119207 0  0.1020898364287272 0.3140258291809757 0  1.766482954545455 0.2934032012195123 0  1.051658316544432 0.2265720188842194 0  0.2 0.3400647632937836 0  1.421109702350723 0.2261157654379721 0  0.4812500000000001 0.41 0  0.4324401666997539 0.3216425986889796 0  0.098916018031319 0.09171660955420841 0  0.9508742791313441 0.2921736960864468 0  2.13125 0 0  2.118919042110979 0.3422084711244843 0  1.30625 0.41 0  0.20625 0 0  1.597888256393107 0.2173787389261347 0  0.4812500000000001 0 0  0.4324082967851086 0.08384041677422771 0  1.829299675393195 0.07400700849299596 0  0.568219932524165 0.3212274660843853 0  1.71875 0.41 0  0.268005226542646 0.08512186835670006 0  1.16875 0.41 0  2.038220665644273 0.332420740103091 0  0.6678017527842831 0.07701763866051195 0  0.89375 0.41 0  0.5111435174287687 0.07335351331957608 0  0.176193934632343 0.0734896648625108 0  0.07390688010811153 0.1697064032433452 0  0.05452951551825875 0.25625 0  0.61875 0.41 0  1.452769549894695 0.1548122580621249 0  1.369219062229598 0.07430640243902442 0  1.30625 0 0  1.720943423819132 0.1714577452753128 0  1.157188124459196 0.205 0  1.094219062229598 0.07430640243902437 0  1.304056576180868 0.1714577452753128 0  1.67579304192913 0.07430640243902437 0  0.2672907219039591 0.3037570723459566 0  1.209670467133757 0.1362100266964769 0  1.58125 0 0  1.03125 0 0  0.06875000000000001 0.41 0  0 0.35875 0  1.58125 0.41 0  1.631724228912893 0.3381867502687533 0  0.8240147050827157 0.1225233169495944 0  1.825608881788174 0.14499488549201 0  1.85625 0 0  1.44375 0 0  1.44375 0.41 0  1.85625 0.41 0  2.13125 0.41 0  0.7562500000000001 0.41 0  0.7562500000000001 0 0  0.89375 0 0  0.34375 0 0  0.34375 0.41 0  0.20625 0.41 0  0.06875000000000001 0 0  1.16875 0 0  1.03125 0.41 0  0.61875 0 0  1.71875 0 0  1.99375 0 0  1.99375 0.41 0  0.3972301426712326 0.2593842555611471 0  1.340625 0.3489494290853124 0  1.134375 0.3489494290853123 0  1.700180620188976 0.3438659752031281 0  0.5003922072260507 0.341765274319271 0  0.6212513815748759 0.2209216137134851 0  0.6885607720119526 0.215393731583638 0  1.033412357328477 0.1612902025713047 0  2.135782184673599 0.07126652247502523 0  1.668441847249787 0.2129203728327609 0  1.295782514339747 0.2378437748815763 0  1.409375 0.3520314716057996 0  2.129248544730567 0.1906135162504124 0  2.060771381434487 0.1989445750470348 0  2.013252586573865 0.1496169464686054 0  1.942766402200229 0.1734448904596831 0  1.895522487186454 0.06076163953489683 0  2.069553871656643 0.06605731020975725 0  0.9281250000000001 0.3539050257418612 0  1.274680914880868 0.3520219391081363 0  0.3030138498135347 0.2488370856812789 0  0.8223773249563684 0.341761430177996 0  0.9018164060227267 0.2326477848736739 0  0.8143027982392851 0.2440265179987191 0  0.7225087161029304 0.2699907246386231 0  1.614713220494657 0.09473434380863296 0  0.378125 0.3566194660323104 0  0.309375 0.3566194660323104 0  1.72990325744076 0.2380068107952482 0  0.6915936999299305 0.3429472631234433 0  0.6268087624932918 0.3466455500035671 0  1.356580098625191 0.2120393231351682 0  0.3060160055995138 0.1590148921620778 0  0.3954648733249218 0.156380553890791 0  2.034370752044885 0.2668681600792073 0  1.51768709249349 0.3426260931494756 0  1.561883724969884 0.1650446847858835 0  1.197344062229598 0.2523725417393646 0  0.9281250000000001 0.05124999999999999 0  1.804085235518364 0.3468178408964637 0  1.817887819205233 0.2589243285818559 0  0.9107805776841645 0.1653834539923287 0  1.905897727272727 0.3485060975609756 0  0 0.05125 0  0.844212276491354 0.0614201194265309 0  0.378125 0.05244637078450034 0  1.008571329007178 0.2705955969954818 0  0.7724048032149464 0.1559079561351474 0  0.7203054377831548 0.04941826955193545 0  1.192836486056382 0.3562350748565544 0  0.5967108020713719 0.1479294686523888 0  1.28257088594801 0.2944411014911587 0  0.7041890234548132 0.1222025174424443 0  1.474860187679412 0.2504218616229368 0  1.406767003493824 0.2829282258560709 0  0.3201325899091991 0.05890121548989159 0  0.5979220912872258 0.2727591995766724 0  1.845656689180403 0.1998310418452388 0  2.144958525570388 0.2909790873294231 0  2.2 0.15375 0  1.57794966442982 0.3540357145964566 0  0.9483181579620558 0.1214693369582054 0  0.0496154796471391 0.333125 0  1.508991196088596 0.1421783375065625 0  0.09776612425612034 0.2204896805326566 0  1.50436820029908 0.06143401634903343 0  1.223857000523521 0.0823554862453532 0  0.2531953886959507 0.3582003209055908 0  1.153316824384777 0.1289850171317837 0  2.148922302309752 0.1258841779285271 0  1.621993280276081 0.2841214267927899 0  1.550118654119087 0.2461998729100966 0  1.327182649291491 0.1216967252533594 0  1.753125 0.04556020050186112 0  1.271875 0.04556020050186116 0  0.9824282234771738 0.05051969257615314 0  1.039510847866381 0.05683351822678641 0  1.94956388244759 0.1180512551534177 0  1.949997712993411 0.04965831614304109 0  1.771961817615021 0.1530278789497521 0  1.909246823951428 0.2812757146784527 0  1.101974016627944 0.2038045618205013 0  0.7906250000000001 0.0444674049654372 0  1.948575539857022 0.2445328248721197 0  1.697271520964565 0.1233917627620729 0  1.065625 0.3689344961371042 0  1.085849084308977 0.3170853572226867 0  0.9840604787624379 0.3582077516409966 0  1.577403511714593 0.05463601888079143 0  0.05622663515370135 0.05493816910862376 0  0.8762396958822678 0.3392249777398821 0  1.751571320346033 0.3651102912045228 0  1.055327852410105 0.111864799513911 0  0.1583785085108421 0.2994699345738728 0  0.1455283439499995 0.3542795598723423 0  2.2 0.35875 0  0.225705107073232 0.05084786997482401 0  0.1455852234589313 0.1166494778469164 0  1.466879772203159 0.3611261772912453 0  1.990280163552011 0.3564754268533217 0  1.17471064520912 0.2990917256188288 0  0.7221925551074015 0.1739659241003985 0  0 0.25625 0  2.2 0.25625 0  2.2 0.05125 0  0 0.15375 0  1.853978576207987 0.35875 0  0.21965520498276 0.1015543880164422 0  1.515638456102889 0.2882700110184686 0  0.09048297387599738 0.3637717362208066 0  2.150453692751374 0.2387066338105111 0  1.323782677156475 0.04897634338873398 0  1.409375 0.03715320121951221 0  1.406484531114799 0.1087852750766809 0  1.134375 0.03715320121951218 0  1.627401732573545 0.04552157221025036 0  0.446875 0.3713289093361426 0  2.045405893604797 0.1105340662939892 0  1.255408269734577 0.1577307500159216 0  2.028125 0.03707597992059326 0  0.04420832937638274 0.128125 0  0.5817551710628505 0.3702615006034757 0  0.1197849154434487 0.2663398672460083 0  1.248258025468107 0.2565907092181813 0  0.1300647302703173 0.0508462728378621 0  0.7738123537510222 0.2761231499240648 0  1.203125 0.0366132337404304 0  0.5444207041612499 0.111205399508622 0  0.8016457771828226 0.1964238426015905 0  2.072662025974815 0.2975086504196739 0  0.4019040438866802 0.2103993403217561 0  0.4677372330974851 0.04827477407630658 0  0.8677218578847617 0.1432970430140788 0  1.058011122005847 0.2758866204059919 0  0.4429405887974043 0.2746184809910084 0  0.5843750000000001 0.03726989681835222 0  0.6318596133730142 0.1128692182767254 0  0.4862628454464408 0.2957029785303028 0  0.7805186758662764 0.3673578380827891 0  1.887722846421017 0.1760882698830035 0  0.3498893058880703 0.256189258793856 0  1.472640588990488 0.1118278026240017 0  1.865937103925594 0.2604137786483804 0
[...]
<PointData  Scalars="f_43"> 
<DataArray  type="Float64"  Name="f_43"  format="ascii">4.2275926960052096e-01  4.5648708988159020e-01  8.4717491936754275e-10  4.9365836224656657e-10  -3.5624558046896559e-01  -3.1579073066182611e-01  -3.3701228198522831e-01  -5.0323980375951960e-01  -9.1608157188606665e-01  8.7231492670321176e-01  1.9989137155961614e+00  3.9822438596095733e-01  -1.1533035596408920e+00  -4.9764675717877760e-01  -2.5737528192885750e-01  -2.3747337114403486e-01  -2.8057583078047482e-01  -4.5020314200976042e-01  -1.2956803205176692e-01  -1.3386659832709710e-01  -3.3092136130150407e-01  -1.5109637250693259e-01  -2.4695633693192248e-02  -4.8942017087758360e-01  8.5935861405297687e-02  7.6699800011459374e-01  7.7355393477582232e-02  -2.0406131892455037e-01  -1.9093933759117945e-01  -1.9462672691384270e-03  1.6014756687939367e-02  7.0008731284589953e-02  7.0019529758199528e-02  1.0636287045581634e-01  1.0635767839105799e-01  3.4839824195258072e-02  3.4960109962027676e-02  -6.5327755474473184e-02  -6.5261408080414945e-02  8.7411042540624012e-02  5.2426876344177024e-02  5.3035462441612571e-02  1.1471019311893293e-01  9.0621894739283039e-10  -2.1484281869952711e-02  2.6212438745060448e-02  1.7256956298578870e-02  -1.6254972034327508e-01  1.7795239425896923e-02  -5.5756928024396975e-11  -1.4571972006133571e-01  5.2569436807674411e-02  1.0471578090517968e-01  8.7476689474377742e-02  5.2528642647998364e-02  8.7846864248512013e-02  1.8355789976576779e-02  8.3813139011868192e-03  -1.9963121678594600e-01  3.7273793829827073e-01  3.4762545255939853e-01  -1.8363293358188101e-01  1.2353837147071819e-01  1.0496458716851619e-01  1.2141155996592817e-01  6.9869670004312726e-02  1.0412779053981147e-01  6.6480108932994247e-02  1.0801118856448377e-01  -2.8899701706084485e-01  3.8785138255444447e-02  1.3592810676874106e-02  4.3728800730703676e-02  -8.9459252319478450e-03  1.7339867608873508e-04  -3.2258995320902856e-01  5.1968125610147342e-01  5.5647739342200997e-01  -1.7417141644604289e-01  -9.0409208946755693e-02  -1.8387950500989675e-01  1.2803023806154864e-02  5.2001791014015877e-02  2.6230648971922340e-02  9.4285703726126893e-02  8.0215062574875387e-02  4.0524399968872866e-02  -9.4497684952474570e-02  3.0684381579112966e-02  5.7233820241716214e-02  1.1663449134565287e-01  -9.0430838600788762e-10  1.1651650274062410e-01  8.2536436662773799e-02  9.6437000747078311e-02  1.1175598036127521e-01  -4.0581290391707070e-01  -2.1965539341879967e-01  9.7061642131643334e-04  3.8222013022636635e-02  4.6309021826929764e-01  5.5093032964708952e-02  9.8969808828947972e-02  1.5019661603650744e-01  9.8890833611696594e-02  -1.9849077354597625e-01  -2.2866000120049301e-01  4.9535671105360063e-01  2.0420608678997618e-02  8.6118186415632420e-03  1.0216717927553244e-02  1.1638305327837795e-01  1.9901335982573870e-01  7.6523635232958090e-02  -2.0955657229172675e-01  -2.3499740008876377e-01  4.7130753412570885e-02  -2.0903497122083856e-01  6.0993759020322953e-02  -1.4877644044951857e-01  1.1092121026112201e-01  2.0606216233930517e-02  -1.6669691287644231e-01  -1.9778493345995879e-02  -2.2333676732450361e-01  2.1734291303035067e-01  9.0049460368665890e-01  7.2098709522364890e-01  -1.7115696750995593e-01  9.5024902785517201e-02  1.0683062510684277e-01  1.1713518539153997e-01  6.0840952202825940e-02  1.1477013232569588e-01  8.2962028970871265e-02  1.1159735752513211e-01  6.6553796678446520e-02  -1.9271246424594632e-01  1.1527051688276969e-01  7.8663471612137423e-02  4.6382730815703627e-02  4.1063993840506607e-01  4.3495521169056750e-01  7.8529706384545164e-02  7.2244312346158940e-02  -2.8804608582766223e-02  4.7565048908897713e-02  4.3510371010958809e-02  9.6500023878158162e-02  9.6537911738581075e-02  4.3603387986047987e-02  8.6907464678632976e-03  -1.1281766513302344e-01  -1.2098116801872646e-01  -1.4233543433201866e-02  -1.4461123234110901e-01  -1.1627946492991990e-01  1.9627432088390548e-01  4.4209355499368541e-01  1.1536919982143480e-01  3.5323735884082032e-02  -1.8721132668246271e-01  6.1129120413033068e-02  2.6156670223246171e-02  2.6012561147169929e-02  -4.0505103447496044e-01  1.1117429815708871e-01  9.6209272468819343e-02  6.3450608905630437e-02  -2.0653544239273655e-01  -2.2607220311302564e-01  -1.2458226855162213e-01  9.6999831215086041e-02  8.1245652611013023e-03  6.7537359159468763e-02  1.1186732862113763e-01  1.0129929284111283e-01  8.9900648996734129e-03  1.7694114741673921e-02  2.3703915626733435e-02  3.2683223203964801e-02  3.8631016332273282e-02  1.6491522537753139e-02  2.6002572068514323e-04  1.1913694805297154e-01  -3.7188495195579002e-01  -5.8613699579868887e-02  8.5630762535704574e-03  1.2457498706590662e-02  -8.2003482764428370e-02  7.4348658096059284e-02  -1.8104509459595186e-01  -9.4538974382578300e-02  5.9732090130763464e-02  -1.3967380004397612e-01  -1.7032788000157439e-01  1.0633474473395629e-01  -3.3738948576858435e-01  -4.5796662322246662e-01  2.1054398501765895e-02  8.6838592671106635e-02  8.1122106838145289e-02  1.1470544093904521e-01  7.3061355926200226e-03  5.0349325087356338e-02  4.8562733540269819e-02  1.9547671393412694e-02  3.7448212527158041e-02  4.6944394983565862e-01  -4.4250447754161641e-02  -2.0177116958602154e-01  5.7455944189274001e-02  -2.2261672275229797e-02  -1.4236559574169735e-01  1.1609548553462799e-01  -2.5126543875367652e-01  1.1465407631809506e-01  -1.1098810226860119e-01  9.2223600945653586e-02  1.0101035300329447e-01  -1.4051728718241585e-01  -2.3025364066963006e-01  4.5033828424981090e-02  6.9726451665441990e-03  -6.4118287244038280e-10  7.9045223981402971e-02  3.6122148636172441e-02  4.5845224277044078e-01  8.7861340397592622e-02  1.1187666445115747e+00  8.8500284242031310e-02  1.1946330670544884e-01  2.6675805777266162e-02  1.0956827857574208e-01  6.4875713634246811e-03  7.3464464266427179e-02  8.2617268073160305e-02  1.1076894146847377e-01  5.6739464309915472e-02  1.2123402945821435e-01  2.7424648590984379e-02  5.0456424466474768e-02  3.1832090974823667e-02  3.1737624488875002e-02  5.4379654547065746e-02  3.6978033146489862e-02  1.1267659269567080e-01  -9.2262773587394042e-02  3.1980978828165287e-02  6.3855947027583584e-02  5.2123927846127904e-02  7.3616924107054851e-02  1.6337042897614503e-02  7.9033233103261241e-02  4.6262693347666928e-01  -2.1716813640041244e-02  5.6927935679237998e-02  7.9627866295012992e-02  2.3118308152636846e-01  3.2184433390620004e-01  -3.4713492450780650e-09  1.0011158776298507e-01  3.4294871924082976e-01  9.3455946273789517e-02  2.6773604917208170e-02  1.1134346018481853e-01  -6.1427281589130293e-02  6.7168353390497904e-01  -5.5756928024396975e-11  -3.8498671922952283e-10  6.9976989820409263e-01  4.4026613575658215e-02  -1.3487708640038570e-01  8.7048635097318514e-02  4.0198160101250580e-01  6.2907839883377930e-03  1.1438393408560009e-01  1.0123262340647567e-01  1.0124139269751908e-01  1.0112364403780261e-01  7.2736293722830442e-02  -1.9595991352923092e-01  1.9595566242080795e-02  1.1463158503350243e-01  2.1778349523019012e-02  6.4333816242709396e-01  -1.8193911882951219e-01  6.6702952298348850e-01  1.1456560351777861e-01  3.7852103424071692e-01  -3.3442488768863146e-02  1.2150206608523624e-01  -2.7636170677513355e-01  2.7153854467280950e-04  1.6182880827456579e-02  -3.9516870653623803e-01  -2.0938051231095145e-01  -6.3048094979681743e-03  8.0775646288121145e-02  -2.3481290967423957e-01  -1.9589164350742916e-01  -2.0153489014732079e-01  -2.0685219279718181e-01  -9.6430426934068197e-02  3.9687845582819896e-02  -4.1471365154600354e-01  9.2528525508568535e-02  4.2464439723088415e-02  7.0904553613038421e-02  9.3554468626082771e-02  -1.2957511392076215e-01  1.0539792846011700e-01  -1.3059897883412808e-01  -1.8308625650950672e-01  -1.2403827880463980e-01  8.5215776235206514e-02  -2.7075063781785519e-01  -2.1046289613516408e-01  6.0713438505723319e-02  -2.6808853679516015e-01  -2.7068758400781995e-01  5.4135196242008590e-02  1.2001779822668189e-02  1.0198345717136008e-01  -2.4722172187280050e-02  2.1989880933762283e-02  -3.5723973422450161e-01  -3.4694547493244748e-01  7.5857247753568502e-02  -4.0640570791829489e-01  9.0922413773645583e-01  4.9317711912983134e-02  8.4211430485223149e-01  2.6661038613845740e-02  1.0014533508328701e-02  1.3132929460842853e-03  4.7440055761566371e-03  1.3113683403370879e-02  1.5831322614650565e-02  3.1253711991755466e-02  3.5751820814034725e-02  7.4204841022848703e-02  -1.5378000977813913e-01  -3.3907542881757086e-01  5.1633517942699554e-02  -4.0655832311035082e-02  2.4645937198576318e-02  1.0360483000155471e-01  1.1455175371443935e-01  9.1646428638193875e-02  7.2248246711480793e-02  -1.9368919518878555e-01  -2.0581450500511589e-01  8.2982528415081760e-02  6.5368444243785892e-02  6.2474620828198511e-02  5.0467091958265355e-03  5.0953611732555788e-03  4.2027642333716109e-01  -2.9941752788970061e-01  -4.1166041985154528e-02  7.1830673308382179e-02  5.1137960481935918e-02  4.2226544586682901e-02  -6.7834761426474668e-02  8.2852040410864677e-02  3.2356203508132488e-02  -1.3714237760924316e-02  1.0627699361982253e-01  4.8058570740468799e-02  5.8896428636104087e-02  2.9602559671988282e-01  6.8176636351245476e-02  -2.0867361528090297e-01  -2.0540193069293808e-01  6.9026568831699345e-02  2.8230210116745996e-01  1.8194834655757854e-02  2.9489237129204926e-02  8.2172062809787075e-02  -2.3357020441804624e-01  1.2126666272455854e-01  1.3437821015654154e-02  9.3161862191101633e-02  7.7568113440314293e-02  -2.4624683395901525e-01  -1.4193719701315477e-01  1.0725875330145970e-01  1.0241072236821271e-01  1.1315360345750275e-01  1.1128394370484053e-01  5.0846575186835628e-02  4.9787722279159797e-03  4.1795040895048435e-01  1.1218754565603725e-01  -1.6323898079521820e-01  -1.9560912676567294e-01  -1.1266405836869493e-01  2.6770717104443603e-02  -3.3046629436128039e-01  3.9283336581805738e-02  -3.7954357068426592e-02  4.3497485496657023e-02  3.9338898194748659e-02  3.4473776837078723e-02  2.4814802251654753e-02  8.7604252160947499e-02  6.1907593853550061e-02  6.7868462879688313e-02  6.9470363138975436e-02  4.5380487996111141e-01  4.2311176733008521e-01  2.0724783497940758e-02  9.9890891467322940e-02  -4.5024110521942849e-02  -7.9672414401629338e-02  -1.0868392775179769e-02  8.7722418962193349e-03  5.5564885615344151e-01  -2.3323575380311634e-01  6.9532634103038038e-01  -1.9418628047112974e-01  5.3520899557720963e-02  -6.1724872691289380e-02  1.4295612848005618e-02  -2.4644826247011684e-01  9.0343091599822012e-02  7.6391983747099124e-01  -1.7974566509294049e-01  2.1236335252003333e-02  9.6242326689313804e-02  2.5222179412966950e-01  8.7410585790397302e-02  5.9632835312674015e-01  8.5130380441581208e-02  -1.2535562643316234e-01  5.7495030395323742e-02  1.1302194651359937e-01  5.9379706691257188e-02  1.1345034759981575e-01  1.0607803942032168e-01  1.0864815490304434e-01  9.2701086833923252e-02  6.5327257492447971e-02  1.0866606265722721e-01  -1.7663049138781595e-01  2.8725109394890112e-02  -1.9855869129458084e-01  -1.7665651628817713e-01  1.1516026893070359e-01  1.1652280185887018e-01  5.3090226667671891e-01  7.5942713357748590e-02  6.7631674457287155e-02  2.3368233594888554e-01  4.3733482502676080e-01  2.0351877238655218e-02  4.9983784861479547e-01  7.2779669880555398e-02  -4.7420645238700904e-02  7.6832555606070496e-02  -2.0725659462520590e-01  8.5240108393805261e-02  4.8123527885733583e-02  -1.5988774594590291e-01  -1.6735408330495645e-02  1.7408013993702287e-02  2.1974490149710511e-02  1.1428111468492504e-01  1.1576623270300979e-02  -2.3350340949661270e-02  1.0528191833882686e-02  4.6751791624848873e-03  5.4398593759018933e-02  8.3381649203098304e-02  -3.4613697206504901e-01  1.0131258737319772e-01  7.4485468646975320e-02  4.4487863299697093e-03  1.0128747787668804e-02  3.0901448843056172e-02  1.1524467497244058e-02  1.1529633996519020e-01  4.3409786798326369e-02  5.0550230104536062e-02  -8.1447760995876067e-03  -2.0616843776679616e-01  -1.9773028515941013e-01  9.5555713974485409e-02  -6.5049216309806215e-02  -1.2153578404986248e-01  -1.9729887346716141e-01  -1.8572896194406022e-01  1.3645253947901659e+00  3.7063725690620428e-02  1.5270287671225530e-01  1.0795669624880348e-01  9.6754316424581197e-02  1.1614957247009405e-01  1.1156639297346661e-01  1.0650945588673348e-01  1.0280666422865913e-01  9.7559482309612616e-02  9.9398876572956135e-03  1.1923379589313826e-01  -3.9597381825136480e-01  -2.0793250112099146e-01  4.3953539574571161e-02  -3.3135630516327186e-01  -2.7023241185883795e-01  1.2350248217486702e-01  -3.4415126379678729e-01  -4.1792007963116912e-01  1.0074748705442844e-01  6.5648057096657789e-02  2.6273215850979633e-02  2.1718891402081712e-02  3.0513858481398540e-02  1.1980457593128072e-01  -2.2689811604752025e-01  8.6174966175702333e-02  9.2584812429366503e-02  1.1394461357422531e-01  1.1412746187602565e-01  1.1177955323589006e-01  4.1903728274502059e-03  1.3229483665998050e-02  1.0126768461449231e-01  9.1978834875165283e-02  5.6734722513024825e-02  5.4687340901954221e-02  5.6589797052846946e-02  -1.4336391908658913e-01  4.0725106407153251e-03  -3.1963388426765427e-03  1.0164658647073559e-01  1.0232735758421363e-01  4.1494767710318304e-03  6.5255585624820978e-02  -1.9470911034199020e-01  -1.7949793704838238e-01  -1.5692308849924833e-01  3.8769231750440830e-01  1.0595137620787132e-01  -9.0222382475129384e-02  -1.9796447341078596e-01  -1.8252892124146761e-01  -9.3828577574389366e-02  -6.1752578661888345e-02  -1.2866727763406652e-01  -1.7794140732290875e-01  -1.5902441854788171e-01  1.2199506260209714e-01  7.4095601982076056e-02  3.0808298636388325e-02  1.2127641567412097e-01  2.1739656951877545e-02  3.0722694260058841e-02  3.1477946425658064e-02  6.1251785697940306e-02  -1.4163458011091476e-01  2.4058094617862891e-02  2.1336160014734113e-02  2.7337769667760550e-02  1.4172238196304183e-02  9.6890523247424212e-02  1.1256308625011521e-01  -7.2509411554006462e-02  -3.1973106982005707e-02  -3.7516899398940351e-01  -3.7424607919941272e-01  -1.1460574445781123e-01  7.7384675011236609e-02  1.0878050074848833e-01  1.1141433251926652e-01  6.3916637177755559e-02  3.9395522477263395e-01  1.0931345802706592e-01  8.4174989705647990e-02  8.9853845732840568e-02  -6.4853748653909388e-02  3.7050175416734332e-02  2.8659699437430497e-01  9.6841197422411776e-02  9.8932441194790721e-02  6.3353435157795443e-02  3.9121832054495993e-02  9.7621690930334903e-02  -1.3910355687000417e-01  6.2696412571885018e-02  -7.8477089085411830e-02  4.7165977125717046e-02  6.7564171078688409e-02  1.1044879311676381e-01  -1.5632315460001284e-01  3.4916384244890852e-02  8.9826339584265724e-02  7.3661573154798576e-01  -1.9491101695449536e-01  1.6470288189978735e-03  7.6311893638498302e-02  -3.0837947935662746e-01  -3.2456166314317698e-02  1.7510968737883898e-02  1.4269399672132487e-02  1.0571468916489055e-01  7.9975806818594974e-01  1.1907389844213827e-01  1.0153161333578833e-01  3.5028273422584591e-02  3.6285845570956425e-02  3.6589980512037384e-01  1.4460912947484904e-02  3.2926944100643851e-01  6.5955958152159981e-03  2.0414762173679733e-02  -4.1344345343671740e-01  -4.5675501432155247e-01  5.0231136364398535e-02  -3.9894358539219182e-01  1.0787064491448976e-02  4.6595211101122594e-02  6.3816576138107123e-02  4.5410652709368532e-02  3.0324980982826773e-02  9.0036272866387095e-03  4.0324281644851167e-03  1.2981528681006748e-02  5.6960976942602220e-03  8.0105602534778039e-02  -2.1360842837973151e-01  7.8583102257056947e-02  7.0792647957068591e-02  3.7172518043422094e-02  -6.5698559026161979e-02  -9.1693992830227014e-02  -7.4934580779614707e-02  -3.1449865002297815e-02  7.6811369996103065e-02  8.0817727506244844e-02  -2.5764585761586178e-01  -1.6548929324630768e-01  -1.8694125577263437e-01  7.6743409726627007e-02  5.8410797664903980e-01  8.4788886766014926e-02  -1.3612937055346767e-02  -1.1711613408152041e-01  1.0999739132675405e-01  -2.6542132692560294e-01  4.1514400924689394e-02  -3.5087091817994109e-01  1.0363713044585131e-01  -1.6048312268119710e-01  -1.8914595194578948e-01  -2.2962021423313289e-01  3.3021788977610107e-02  1.1473964589346924e-01  8.0753501201739214e-02  4.9422272535702638e-02  1.1468768434865682e-01  -9.8359356732944894e-02  1.1209958029329554e+00  5.7549899461497807e-02  6.8518194469062627e-04  -2.9643707554912280e-01  1.1388177651366092e-01  1.1510943528122934e-01  6.8272070485491401e-02  9.2269549711477758e-02  5.1644359775521065e-02  4.6220000297351897e-02  1.3561212189125160e-02  8.9313523058879379e-02  2.8845979324164415e-02  1.2355839939309214e-02  -8.1528109967107139e-03  4.5689255185396965e-01  4.5515477522469444e-01  8.3856048327732136e-02  -2.9241458695693362e-01  3.8252104451460836e-02  3.6756173570218889e-02  8.0512594830790124e-02  4.8155962756483296e-02  1.1586929827269164e-01  3.6423186678563672e-04  6.0098783917187426e-01  -1.3122158234246065e-02  8.2816789378255873e-02  6.8645905118950398e-02  2.4174782455932176e-01  -1.2194646320024155e-01  2.7888150897764526e-02  1.1111008641717188e-01  -2.4917348271318740e-01  -2.2389469476767404e-01  -3.6403203988122063e-01  1.2009853204347840e-01  4.6010587959739793e-02  -2.6011772791001025e-01  4.3948673229064111e-01  7.5002466947216362e-01  1.2681332437862505e-02  -1.0983325136829718e-01  4.7257672404364771e-02  1.1490655608503232e-01  7.2480830734346191e-02  4.0843610662628059e-02  9.0621894739283039e-10  -2.1605129166000328e-01  7.0123257768596736e-02  4.4255284063450346e-03  -2.0732050555817988e-01  -1.9106213534546687e-01  1.7249458525492305e-02  -1.5151350484264833e-01  3.8725326170749286e-01  3.7230458305361319e-01  3.8650689099511894e-02  1.0233015459427568e-01  9.5151239348702718e-02  9.2521060744504766e-02  8.9784276504696517e-02  9.7083705761507516e-02  4.1911182875019166e-02  -1.9731190645037752e-01  1.0449962429911128e-01  9.9212103528235035e-02  6.1565782400438446e-02  5.3744621553046948e-02  -6.7693053379927273e-02  -2.3682821254524797e-01  4.1204180327392051e-02  -1.3352924306907768e-01  3.9634769049298899e-02  -9.0430838600788762e-10  1.1565952320140055e-01  1.1352289135407795e-01  1.1959542349604360e-01  -1.4541188444255607e-01  5.9682812239866774e-02  8.6233349621139349e-02  8.7931612978558102e-02  3.0138998791671406e-02  5.1241044817244299e-02  1.8092585065177504e-02  2.4509474139624243e-02  5.8128649123204271e-02  6.7861881017246148e-02  4.0122308613164626e-02  9.1471431567540756e-02  7.1242725390023076e-02  9.4507067545728362e-03  3.9414039066854523e-01  5.3834883099061766e-02  5.4593572643943149e-02  -4.4872471906706138e-02  8.0570152699744844e-03  8.8663766279706117e-03  3.6916401406380289e-03  -2.1628755537473082e-01  4.1665068912021028e-02  2.7059489137899954e-02  1.1516246194311448e-01  -2.2757980785221124e-01  1.1832004040457945e-01  5.8940050630588138e-02  5.4074853018011411e-02  -1.9787997293315696e-01  -2.0795150988602837e-01  7.7170574492633245e-02  -2.0494423180524290e-01  -2.3333630164985486e-01  -2.2755556149888817e-01  1.1326966420888636e-01  1.1043199683400350e-01  1.0841624510470278e-01  -4.1456861342859758e-01  1.1869226826348249e-01  -1.5197762268189483e-01  1.1829643212576445e-01  3.1756716692371140e-01  -2.1734563766108515e-02  9.7762821487334728e-02  -1.2045887896068083e-01  9.0621894739283039e-10  1.0779773080740971e+00  8.7756948346490948e-01  2.6051337869108789e-02  -5.0600653761416828e-03  -1.1870781609445498e-01  7.9306184852781181e-02  7.5334531566250487e-02  -1.2367782060736252e-01  3.5518623171029752e-02  -1.7515594574638416e-01  5.2035613789093516e-01  4.6564460237342670e-01  4.7024778109809945e-01  3.2920319671920911e-02  1.4033797720907867e-02  8.5315824167340917e-02  8.0796408131230540e-02  7.9399112968217514e-02  1.0937886711315520e-01  5.3296733748362435e-01  1.1755822634385074e-01  -3.7145315854700445e-01  7.3940613334875421e-02  4.8773424292939967e-02  5.3427621849439916e-02  3.5199619390475403e-02  3.3648989031183241e-02  -2.2028851614804448e-01  6.0031897557830470e-02  -1.9749255882799391e-01  5.5982402100634640e-02  1.1589537549991406e-01  9.803368159481