<?xml version="1.0"?>
<VTKFile type="UnstructuredGrid"  version="0.1"  >
<UnstructuredGrid>
<Piece  NumberOfPoints="2426" NumberOfCells="4534">
<Points>
<DataArray  type="Float64"  NumberOfComponents="3"  format="ascii">0 0.41 0  0 0 0  2.2 0 0  2.2 0.41 0  0.2404508497187474 0.2293892626146237 0  0.25 0.2 0  0.2404508497187474 0.1706107373853764 0  0.2154508497187474 0.1524471741852423 0  0.1845491502812526 0.1524471741852423 0  0.1595491502812526 0.1706107373853764 0  0.15 0.2 0  0.1595491502812526 0.2293892626146237 0  0.1845491502812527 0.2475528258147577 0  0.2154508497187474 0.2475528258147577 0  0.5404508497187474 0.2293892626146237 0  0.55 0.2 0  0.5404508497187474 0.1706107373853764 0  0.5154508497187473 0.1524471741852423 0  0.4845491502812526 0.1524471741852423 0  0.4595491502812526 0.1706107373853764 0  0.45 0.2 0  0.4595491502812526 0.2293892626146237 0  0.4845491502812526 0.2475528258147577 0  0.5154508497187473 0.2475528258147577 0  1.1 0 0  0 0.205 0  1.1 0.41 0  0.55 0 0  0.55 0.41 0  0.275 0 0  0.275 0.41 0  1.65 0.41 0  1.65 0 0  1.375 0 0  1.375 0.41 0  1.925 0 0  1.925 0.41 0  0.8250000000000001 0.41 0  0.8250000000000001 0 0  1.5125 0.205 0  1.7875 0.205 0  0.9625000000000001 0.205 0  1.2375 0.205 0  2.2 0.205 0  0.7560964076246335 0.2151713709677419 0  1.99375 0.2152743902439024 0  2.0625 0 0  0.6875 0 0  2.0625 0.41 0  2.2 0.3075 0  0.6875 0.41 0  1.7875 0.41 0  1.375 0.1486128048780488 0  1.5125 0 0  1.7875 0 0  1.5125 0.41 0  0.9625000000000001 0 0  0.9625000000000001 0.41 0  0.4125 0 0  0.1375 0 0  0.1375 0.41 0  0.4125 0.41 0  1.2375 0 0  1.1 0.1486128048780487 0  1.2375 0.41 0  1.65 0.1486128048780487 0  1.126715909090909 0.2793064024390244 0  1.676715909090909 0.2793064024390244 0  1.348284090909091 0.2793064024390244 0  0.34375 0.3032389320646208 0  1.894702181800738 0.1282910975492754 0  2.092797818199262 0.1282910975492754 0  1.85625 0.3075 0  0.8630851210521902 0.286932093388664 0  0.89375 0.1025 0  0.35 0.1090282786671641 0  0 0.3075 0  0 0.1025 0  0.6526217841291382 0.288229645480046 0  0.7562500000000001 0.09660248895515888 0  0.6568633732316684 0.1557582854763441 0  2.099172119769978 0.25625 0  1.002356446954348 0.1010393851523063 0  1.99375 0.08395950269330846 0  1.459960956013612 0.3075 0  1.569025960719943 0.2986889805672169 0  1.03125 0.3278689922742084 0  0.75625 0.3247156761655783 0  1.959375 0.3126371951219512 0  1.749222215368287 0.1025 0  1.275777784631713 0.1025 0  2.2 0.1025 0  1.225938124459196 0.3075 0  1.550777784631713 0.1025 0  1.44375 0.07430640243902442 0  1.16875 0.07430640243902437 0  0.3528655045338512 0.2063263890916129 0  0.5890337614812103 0.08775733857679162 0  0.8504912436891263 0.190072835691683 0  1.899250267340833 0.2229966846119207 0  0.1020898364287272 0.3140258291809757 0  1.766482954545455 0.2934032012195123 0  1.051658316544432 0.2265720188842194 0  0.2 0.3400647632937836 0  1.421109702350723 0.2261157654379721 0  0.4812500000000001 0.41 0  0.4324401666997539 0.3216425986889796 0  0.098916018031319 0.09171660955420841 0  0.9508742791313441 0.2921736960864468 0  2.13125 0 0  2.118919042110979 0.3422084711244843 0  1.30625 0.41 0  0.20625 0 0  1.597888256393107 0.2173787389261347 0  0.4812500000000001 0 0  0.4324082967851086 0.08384041677422771 0  1.829299675393195 0.07400700849299596 0  0.568219932524165 0.3212274660843853 0  1.71875 0.41 0  0.268005226542646 0.08512186835670006 0  1.16875 0.41 0  2.038220665644273 0.332420740103091 0  0.6678017527842831 0.07701763866051195 0  0.89375 0.41 0  0.5111435174287687 0.07335351331957608 0  0.176193934632343 0.0734896648625108 0  0.07390688010811153 0.1697064032433452 0  0.05452951551825875 0.25625 0  0.61875 0.41 0  1.452769549894695 0.1548122580621249 0  1.369219062229598 0.07430640243902442 0  1.30625 0 0  1.720943423819132 0.1714577452753128 0  1.157188124459196 0.205 0  1.094219062229598 0.07430640243902437 0  1.304056576180868 0.1714577452753128 0  1.67579304192913 0.07430640243902437 0  0.2672907219039591 0.3037570723459566 0  1.209670467133757 0.1362100266964769 0  1.58125 0 0  1.03125 0 0  0.06875000000000001 0.41 0  0 0.35875 0  1.58125 0.41 0  1.631724228912893 0.3381867502687533 0  0.8240147050827157 0.1225233169495944 0  1.825608881788174 0.14499488549201 0  1.85625 0 0  1.44375 0 0  1.44375 0.41 0  1.85625 0.41 0  2.13125 0.41 0  0.7562500000000001 0.41 0  0.7562500000000001 0 0  0.89375 0 0  0.34375 0 0  0.34375 0.41 0  0.20625 0.41 0  0.06875000000000001 0 0  1.16875 0 0  1.03125 0.41 0  0.61875 0 0  1.71875 0 0  1.99375 0 0  1.99375 0.41 0  0.3972301426712326 0.2593842555611471 0  1.340625 0.3489494290853124 0  1.134375 0.3489494290853123 0  1.700180620188976 0.3438659752031281 0  0.5003922072260507 0.341765274319271 0  0.6212513815748759 0.2209216137134851 0  0.6885607720119526 0.215393731583638 0  1.033412357328477 0.1612902025713047 0  2.135782184673599 0.07126652247502523 0  1.668441847249787 0.2129203728327609 0  1.295782514339747 0.2378437748815763 0  1.409375 0.3520314716057996 0  2.129248544730567 0.1906135162504124 0  2.060771381434487 0.1989445750470348 0  2.013252586573865 0.1496169464686054 0  1.942766402200229 0.1734448904596831 0  1.895522487186454 0.06076163953489683 0  2.069553871656643 0.06605731020975725 0  0.9281250000000001 0.3539050257418612 0  1.274680914880868 0.3520219391081363 0  0.3030138498135347 0.2488370856812789 0  0.8223773249563684 0.341761430177996 0  0.9018164060227267 0.2326477848736739 0  0.8143027982392851 0.2440265179987191 0  0.7225087161029304 0.2699907246386231 0  1.614713220494657 0.09473434380863296 0  0.378125 0.3566194660323104 0  0.309375 0.3566194660323104 0  1.72990325744076 0.2380068107952482 0  0.6915936999299305 0.3429472631234433 0  0.6268087624932918 0.3466455500035671 0  1.356580098625191 0.2120393231351682 0  0.3060160055995138 0.1590148921620778 0  0.3954648733249218 0.156380553890791 0  2.034370752044885 0.2668681600792073 0  1.51768709249349 0.3426260931494756 0  1.561883724969884 0.1650446847858835 0  1.197344062229598 0.2523725417393646 0  0.9281250000000001 0.05124999999999999 0  1.804085235518364 0.3468178408964637 0  1.817887819205233 0.2589243285818559 0  0.9107805776841645 0.1653834539923287 0  1.905897727272727 0.3485060975609756 0  0 0.05125 0  0.844212276491354 0.0614201194265309 0  0.378125 0.05244637078450034 0  1.008571329007178 0.2705955969954818 0  0.7724048032149464 0.1559079561351474 0  0.7203054377831548 0.04941826955193545 0  1.192836486056382 0.3562350748565544 0  0.5967108020713719 0.1479294686523888 0  1.28257088594801 0.2944411014911587 0  0.7041890234548132 0.1222025174424443 0  1.474860187679412 0.2504218616229368 0  1.406767003493824 0.2829282258560709 0  0.3201325899091991 0.05890121548989159 0  0.5979220912872258 0.2727591995766724 0  1.845656689180403 0.1998310418452388 0  2.144958525570388 0.2909790873294231 0  2.2 0.15375 0  1.57794966442982 0.3540357145964566 0  0.9483181579620558 0.1214693369582054 0  0.0496154796471391 0.333125 0  1.508991196088596 0.1421783375065625 0  0.09776612425612034 0.2204896805326566 0  1.50436820029908 0.06143401634903343 0  1.223857000523521 0.0823554862453532 0  0.2531953886959507 0.3582003209055908 0  1.153316824384777 0.1289850171317837 0  2.148922302309752 0.1258841779285271 0  1.621993280276081 0.2841214267927899 0  1.550118654119087 0.2461998729100966 0  1.327182649291491 0.1216967252533594 0  1.753125 0.04556020050186112 0  1.271875 0.04556020050186116 0  0.9824282234771738 0.05051969257615314 0  1.039510847866381 0.05683351822678641 0  1.94956388244759 0.1180512551534177 0  1.949997712993411 0.04965831614304109 0  1.771961817615021 0.1530278789497521 0  1.909246823951428 0.2812757146784527 0  1.101974016627944 0.2038045618205013 0  0.7906250000000001 0.0444674049654372 0  1.948575539857022 0.2445328248721197 0  1.697271520964565 0.1233917627620729 0  1.065625 0.3689344961371042 0  1.085849084308977 0.3170853572226867 0  0.9840604787624379 0.3582077516409966 0  1.577403511714593 0.05463601888079143 0  0.05622663515370135 0.05493816910862376 0  0.8762396958822678 0.3392249777398821 0  1.751571320346033 0.3651102912045228 0  1.055327852410105 0.111864799513911 0  0.1583785085108421 0.2994699345738728 0  0.1455283439499995 0.3542795598723423 0  2.2 0.35875 0  0.225705107073232 0.05084786997482401 0  0.1455852234589313 0.1166494778469164 0  1.466879772203159 0.3611261772912453 0  1.990280163552011 0.3564754268533217 0  1.17471064520912 0.2990917256188288 0  0.7221925551074015 0.1739659241003985 0  0 0.25625 0  2.2 0.25625 0  2.2 0.05125 0  0 0.15375 0  1.853978576207987 0.35875 0  0.21965520498276 0.1015543880164422 0  1.515638456102889 0.2882700110184686 0  0.09048297387599738 0.3637717362208066 0  2.150453692751374 0.2387066338105111 0  1.323782677156475 0.04897634338873398 0  1.409375 0.03715320121951221 0  1.406484531114799 0.1087852750766809 0  1.134375 0.03715320121951218 0  1.627401732573545 0.04552157221025036 0  0.446875 0.3713289093361426 0  2.045405893604797 0.1105340662939892 0  1.255408269734577 0.1577307500159216 0  2.028125 0.03707597992059326 0  0.04420832937638274 0.128125 0  0.5817551710628505 0.3702615006034757 0  0.1197849154434487 0.2663398672460083 0  1.248258025468107 0.2565907092181813 0  0.1300647302703173 0.0508462728378621 0  0.7738123537510222 0.2761231499240648 0  1.203125 0.0366132337404304 0  0.5444207041612499 0.111205399508622 0  0.8016457771828226 0.1964238426015905 0  2.072662025974815 0.2975086504196739 0  0.4019040438866802 0.2103993403217561 0  0.4677372330974851 0.04827477407630658 0  0.8677218578847617 0.1432970430140788 0  1.058011122005847 0.2758866204059919 0  0.4429405887974043 0.2746184809910084 0  0.5843750000000001 0.03726989681835222 0  0.6318596133730142 0.1128692182767254 0  0.4862628454464408 0.2957029785303028 0  0.7805186758662764 0.3673578380827891 0  1.887722846421017 0.1760882698830035 0  0.3498893058880703 0.256189258793856 0  1.472640588990488 0.1118278026240017 0  1.865937103925594 0.2604137786483804 0
[...]
<PointData  Scalars="f_43"> 
<DataArray  type="Float64"  Name="f_43"  format="ascii">4.4228105743186052e-01  4.7266791644612843e-01  1.1895660903387042e-09  1.1088225810130549e-09  -3.4196056548716713e-01  -3.0594281652547617e-01  -3.2894759443905136e-01  -4.9645761279565442e-01  -9.1379624477448107e-01  8.8214058457080757e-01  2.0161101874689877e+00  4.1984333430327164e-01  -1.1386024966767347e+00  -4.8896392468885708e-01  -2.5843976146163516e-01  -2.3547485719241071e-01  -2.7220385334482067e-01  -4.4095504807828823e-01  -1.1167769242094808e-01  -8.9322481072133378e-02  -2.7313642757952233e-01  -1.2101990014293817e-01  -5.2480830905680342e-02  -4.9993291072382495e-01  1.1664863755721006e-02  7.8433378192465142e-01  6.2002767448342874e-04  -1.8305767667936143e-01  -1.7841542944873429e-01  1.9628689505163343e-02  4.0654125433472105e-02  3.2969182669865274e-02  2.9185147017137016e-02  3.1442448570280127e-02  3.0719873235767713e-02  1.8804241390766082e-02  1.6266498220148581e-02  -7.0309072625291597e-02  -6.8334041129854514e-02  3.0630991083595179e-02  2.5145024187360858e-02  3.3098955275801298e-02  3.0420840977831994e-02  1.6646072043681250e-09  -4.5518367743562063e-02  1.3082931404973118e-02  9.8013245601255398e-03  -1.3074802916712561e-01  1.0515031328863885e-02  8.1228611009750405e-10  -1.3117907311297949e-01  2.5864689143261291e-02  3.2008720522780344e-02  3.5482049848403419e-02  2.5142497377717111e-02  2.8065899389491073e-02  -2.2847485240186705e-02  -2.3903889535954920e-02  -1.7411513871436626e-01  3.8938746525580004e-01  3.6707140165562152e-01  -1.5682745152424996e-01  2.2121020702082262e-02  2.7756864608177636e-02  2.3896865546365772e-02  2.8343920983887841e-02  1.6841991487223054e-02  3.2701793642699685e-02  3.2290711884914135e-02  -2.3584399324046043e-01  2.0697733327789906e-02  7.0663106960334367e-03  1.9738114768009581e-02  -1.0985919222887117e-02  -1.8180050212461291e-02  -2.7639094771264111e-01  5.3885918931315480e-01  5.7261717892295372e-01  -1.7267925615757851e-01  -7.9503785522117454e-02  -1.8107764953098235e-01  8.7467248435247509e-03  3.0627783186545441e-03  1.4706824478911442e-02  2.7196195754574930e-02  2.9573392231430552e-02  -4.8049136592576130e-03  -8.8570033074145391e-02  1.3957386206484070e-02  2.5406780241628953e-02  2.4097227403704739e-02  -1.3774224742020469e-09  2.4831221192483155e-02  3.4236216318063353e-02  3.5816893076366749e-02  2.0580938446960118e-02  -3.3486248980454553e-01  -2.0083061107613898e-01  2.1055207755704082e-02  1.6460140991926560e-02  4.8233039954441381e-01  2.8064844241940598e-02  2.3947495973024653e-02  1.7078837042549200e-01  2.9768421098050387e-02  -1.7939719042030122e-01  -1.9490276602500625e-01  5.1119862872502708e-01  4.5191047723624176e-04  4.7880786881602964e-03  7.0102861664248306e-03  3.0548019132172886e-02  2.1709308832126220e-01  3.1668967801717476e-02  -1.8855563195274330e-01  -1.9399750614213154e-01  2.3719929378076501e-02  -2.0355848508725680e-01  3.1056745985070085e-02  -1.2973000342030219e-01  1.2515902842953367e-02  1.1926492019354900e-02  -1.4262273110680743e-01  -4.4073401569588520e-02  -2.0338698747310321e-01  2.3376513563164755e-01  9.1679590251298948e-01  7.3938788729687654e-01  -1.5966528905831953e-01  3.5344869724132227e-02  3.0436512078440815e-02  2.5942195563954554e-02  2.5737453177614649e-02  2.8272263435638868e-02  1.3877347792773614e-02  2.7606781197608884e-02  2.7572580922132058e-02  -1.6743926561093334e-01  2.4519142825817183e-02  3.2477750746100861e-02  -2.9076389091979402e-03  4.3011802845408365e-01  4.5445223849617172e-01  3.0896784251661622e-02  3.2979751998100007e-02  -2.5002847865429390e-02  2.3599329030427753e-02  2.2430238522070867e-02  3.5446235899385461e-02  2.8243472306181201e-02  2.0293860203254806e-02  5.7778943521325770e-03  -1.0022605643845563e-01  -9.7407479150547219e-02  -4.4336337181840720e-02  -1.1821473185242641e-01  -8.7779744066138116e-02  2.1699260988868133e-01  4.5834571962662163e-01  1.9085468150327731e-02  -1.0330335023495400e-02  -1.5999190895647580e-01  2.6950145003169911e-02  1.4572805416818971e-02  1.3608273473478108e-02  -3.1881391579266727e-01  3.2210180001964045e-02  6.3571173896424622e-03  3.2662314880735094e-02  -1.9277261361575837e-01  -2.2269667523347628e-01  -1.3785581856963916e-01  3.0212886507250077e-02  4.2461017650878259e-03  3.1156869156480974e-02  3.4288979555119392e-02  2.9355704500643291e-02  4.7022409358358367e-03  9.9272134796130358e-03  1.3117651680625874e-02  1.7530123383634612e-02  2.0482479766426826e-02  9.2223585966312877e-03  -2.9663297855806646e-02  2.9115336264769975e-02  -3.3368080198986549e-01  -6.2434051144404791e-02  3.1859257836429254e-02  2.9939946949062910e-04  -9.8922063362728532e-02  3.0672548019423946e-02  -1.4765237310359300e-01  -6.4731365645455619e-02  3.0537674037172481e-02  -1.2755757709692830e-01  -1.6116118095684870e-01  3.2401835404706245e-02  -3.3085369400102993e-01  -3.5081734578114371e-01  1.1982236770974911e-02  2.6923342378659777e-02  3.3699555936385885e-02  2.9085256712755123e-02  -3.1458405377717602e-02  2.4417648298519012e-02  2.3117268105836822e-02  2.5009039074734930e-02  1.6507582925097929e-02  4.8559827190971250e-01  -5.4915426878156662e-02  -1.6986007903911102e-01  1.3230716911033802e-02  -3.4167207439198981e-02  -1.1055475295296043e-01  1.6633993276971102e-02  -2.3574158118520211e-01  3.1432006116830981e-02  -1.1517128294218833e-01  2.7606670911039785e-02  2.9765002705881463e-02  -1.1308825812527493e-01  -2.2954535960244549e-01  2.1651671314733893e-02  5.0785658128927082e-03  -1.4280895308322028e-09  3.0270179849014461e-02  5.5846997474545846e-03  4.7786309295003754e-01  3.5518971262278765e-02  1.1364613647303294e+00  3.6051586189397529e-02  2.2060552291496369e-02  5.0629263796858386e-02  2.4477785037229118e-02  3.1481431328583050e-03  3.2366696469025812e-02  2.9951059558644206e-02  2.7890561056122372e-02  2.5902401692387798e-02  2.3026635820201775e-02  -1.5593027306230188e-02  7.0320443060960117e-04  1.7505570892062852e-02  1.7331744795914435e-02  2.4787872804639479e-02  1.6022078780675374e-02  2.7378769497001680e-02  -7.8648416221148196e-02  1.4124974012180448e-02  2.6619124980467302e-02  -4.7519830977605189e-03  3.0713889582911296e-03  -1.6823930602154025e-02  3.2651018789175257e-02  4.7877115952094412e-01  -4.1366695502337562e-02  2.9010000090492306e-02  1.5821108596820885e-02  2.5004077497000787e-01  3.4145077390005163e-01  -5.4881674101281513e-09  1.1882978834165005e-01  3.5719066946233807e-01  2.7039777224429410e-02  1.3592935893934578e-02  1.8514310948298821e-02  -8.6608543756762316e-02  6.9007479769915925e-01  8.1228611009750405e-10  8.9936355930674099e-10  7.1623819460980387e-01  2.0102410588119495e-02  -1.2021080707495055e-01  2.7623872183309979e-02  4.2147531413989525e-01  5.0354379924131476e-03  2.6425173838993985e-02  3.3870276264338653e-02  3.3403660181738196e-02  1.6609779230101950e-02  2.9935158841679074e-02  -1.7265695338839107e-01  1.0973545623520457e-02  2.5561922174448491e-02  1.2254508572712470e-02  6.5945119358110371e-01  -1.7168562716294017e-01  6.8577698314363045e-01  3.2287440152529837e-02  3.9494542493512474e-01  -5.0286910355626234e-02  2.0754835777717473e-02  -2.5901461718039970e-01  -1.4770822799586184e-03  1.0176239919070480e-02  -3.1315324354984414e-01  -1.8638586834592255e-01  6.0957148103266386e-03  1.2409973525360619e-02  -1.9494703015333653e-01  -1.7353809748637264e-01  -1.8805279386987134e-01  -2.0338187334360006e-01  -8.6630365988611735e-02  2.0444461019350445e-02  -3.3851395303205178e-01  3.5913958868465330e-02  1.8626283410872631e-02  2.4187144499658170e-02  3.0882599703393156e-02  -1.1073497307400124e-01  3.1583424927489903e-02  -1.1560910983838575e-01  -1.5567036225950820e-01  -1.0784049015652344e-01  3.0232900446035563e-02  -2.0548007639565558e-01  -1.7951753490532335e-01  3.1075366966915929e-02  -2.6968225951891195e-01  -2.1971950013991076e-01  2.7477161311364309e-02  6.6211049514210071e-03  3.2209689965731952e-02  -3.1758971749372263e-02  1.2278978783670598e-02  -3.2644079027851608e-01  -3.3818062849226899e-01  3.1275573515079987e-02  -3.4106190947809956e-01  9.2419818256625019e-01  2.3906318437439796e-02  8.5946495526588740e-01  1.3305899808318263e-02  2.1832945592338952e-02  -1.3901612948273072e-02  3.5117755279681340e-03  8.3110979133766156e-03  9.8559178597784243e-03  -4.4017641993942249e-03  2.3026583119353083e-02  3.2299668424663863e-02  -1.4060731876159188e-01  -2.6964893203212115e-01  2.4600369678596898e-02  -5.6638056060143493e-02  1.2762692069196243e-02  3.1037895560452743e-02  2.8002686332371393e-02  3.5973988394540968e-02  3.0570283486773899e-02  -1.8174961376458545e-01  -1.7914413162838633e-01  2.9275472370794659e-02  2.7964374034619922e-02  2.6931327916067900e-02  2.7600609366029284e-03  3.5444738089276603e-03  4.3978796256076108e-01  -2.8307773521468582e-01  -1.8622335315146843e-02  3.2878972265666752e-02  2.4794903002399317e-02  2.2010820124020489e-02  -6.0912609218639384e-02  3.4169177122668370e-02  1.5074556205740846e-02  -4.1933332500825655e-02  2.0788220043852831e-02  2.2998111766953981e-02  3.0602269302336983e-02  3.1317237597196268e-01  3.3153468539789413e-02  -1.8846780218351580e-01  -1.8633661122040876e-01  7.7192632150875047e-03  3.0206372341502430e-01  9.5908443765618436e-03  -1.0960512980011819e-02  3.1261017498362284e-02  -2.2902195397059691e-01  2.3546754696234282e-02  6.5683902900508370e-03  3.6165126550177784e-02  3.1670315663262005e-02  -2.4677291640341412e-01  -1.4996370333411585e-01  3.0611596192239625e-02  2.0099222483223905e-02  2.5693904306015609e-02  2.9390925867117820e-02  2.7632457940489651e-02  2.1838014636974211e-03  4.3434187381509171e-01  3.2676724020057828e-02  -1.3050879646575170e-01  -1.9070319126444851e-01  -1.1044826061335535e-01  1.4895183071236960e-02  -3.1924088567568287e-01  1.8020634559011445e-02  -5.5906614750805897e-02  2.2416415933819881e-02  2.0714314681303646e-02  1.8643491448020647e-02  -1.6221548778228109e-02  3.5823532293317452e-02  2.6258180228648342e-02  2.8341238701149376e-02  2.8534370482523469e-02  4.6999132166045587e-01  4.4263371941000179e-01  1.1868384150065867e-02  3.4131130445557621e-02  -5.8214032523978158e-02  -5.5662099187088192e-02  1.0052877238297710e-03  1.4345209596841371e-02  5.7470240639018022e-01  -2.2072907438441031e-01  7.1107963243626737e-01  -1.5780906820218321e-01  2.5167158315435482e-02  -7.3723052082248358e-02  -1.6178455825222999e-02  -2.3972816786972984e-01  3.4774621292636462e-02  7.8044475968943028e-01  -1.6768841507130161e-01  1.1984317376362732e-02  2.8209687388200424e-02  2.7229826534361889e-01  2.8218567677433640e-02  6.1517058924396706e-01  3.4927997104053490e-02  -1.0697951152999767e-01  2.6938746852455873e-02  3.0579603259972343e-02  2.5614641878012673e-02  2.6261528890845751e-02  3.0673435315887267e-02  2.9905887604089000e-02  1.9611291683623855e-02  2.6677776021255158e-02  2.9505601132591239e-02  -1.7788763701409502e-01  1.6046744132959437e-02  -1.9766563758536312e-01  -1.4675527569562222e-01  2.2867865216042213e-02  2.4280772158603674e-02  5.4691271501858907e-01  3.1474616918358518e-02  3.3402383579750325e-02  2.5126130727225637e-01  4.5353774036948075e-01  -1.6509308426998198e-02  5.1595428978680902e-01  3.2631309197908180e-02  -4.7287345515763031e-02  3.1991062669661098e-02  -1.8800677939717014e-01  2.8111918252590962e-02  2.3944903099839012e-02  -1.5589633940217693e-01  -4.2105455709595251e-02  1.0744823051960428e-02  1.2161156920011353e-02  2.5336543032567920e-02  7.8721887988355225e-03  -3.1599763866296246e-02  7.1741650120363274e-03  2.7381263005476341e-03  2.7588079891971661e-02  3.4586342435386538e-02  -3.2537402608677246e-01  3.3784050002222815e-02  4.8679872065472690e-04  2.1972028134708984e-03  5.2491535246360953e-03  1.4511320849427257e-02  7.5343694190128010e-03  3.0214200924503484e-02  2.2416884456980608e-02  2.4177681651548183e-02  1.4001681802836329e-02  -1.8529128675105014e-01  -1.7958052575807956e-01  1.1522646402871423e-01  -6.5139248309520822e-02  -9.5339697059087292e-02  -1.8194749528994519e-01  -1.5784015343072558e-01  1.3809230863064570e+00  -7.7497392547874380e-03  1.7409077463039707e-01  1.0703335545980889e-02  6.4395967992155233e-03  3.1047985426208916e-02  3.1234853394310928e-02  3.0963552917586290e-02  1.1005735234313750e-02  3.2977966018682386e-02  4.7022472945359474e-03  1.8545588024245854e-02  -3.0853215266776929e-01  -1.8477734922883560e-01  2.2437465063621119e-02  -3.2139989078131104e-01  -2.4909589616469949e-01  2.1834071879502641e-02  -2.7338192430819375e-01  -3.3406148992396395e-01  2.9549256274036383e-02  3.2505933841512465e-02  1.4193856753803609e-02  1.1836467938240725e-02  1.4077023042865060e-02  2.7942846627191313e-02  -2.0822050898068856e-01  3.1895156932041330e-03  1.3170835609811955e-02  2.5477983311088401e-02  1.9241906818270330e-02  2.8562578415474452e-02  2.3805159880004433e-03  7.2742776962966462e-03  3.3890753676306298e-02  2.7647384735878276e-02  2.8716253051862383e-02  -4.8258537438862692e-03  2.6060437050906233e-02  -1.1355319392423475e-01  -3.3360418729019681e-02  -3.3023608577118418e-02  2.9414453472683972e-02  1.6267257913370380e-02  3.0140097819863344e-03  5.3314447633410851e-03  -1.7158118634875505e-01  -1.5265487332156197e-01  -1.2868995898849017e-01  4.0711504706971663e-01  1.2832243214141950e-01  -8.4932892378592348e-02  -1.7471127530564851e-01  -1.7139247518684605e-01  -8.2226882025560499e-02  -3.4626170533599301e-02  -9.8350367971157926e-02  -1.4067895576119349e-01  -1.4622507799420956e-01  2.0762012814800130e-02  3.0766932903178643e-02  1.6746071083323984e-02  2.3719784754523410e-02  1.2253192725208846e-02  1.4891637924494478e-02  -1.2474332892070325e-02  3.1297867834108206e-02  -1.3845240457254449e-01  1.3512330211179218e-02  3.2411336654615396e-02  3.3640038760102083e-02  3.1982387781663749e-02  3.5111035793105566e-02  2.7538344901342701e-02  -7.3073395385869044e-02  -3.9851965937016301e-02  -2.9972138565956363e-01  -3.2069678095387388e-01  -1.3042487288068166e-01  1.8329924042437842e-02  3.3418335641521128e-02  3.2879519008040939e-02  2.5191688538496512e-02  4.0975655479377637e-01  1.3234704279057980e-02  2.7622065057947960e-02  2.6420699223209401e-02  -8.7714717702825726e-02  1.9738620251255220e-02  3.0509341967553760e-01  2.7637153799704779e-02  2.8656205528131549e-02  3.2103054418137975e-02  1.6931209345955361e-02  2.6425572178980259e-02  -1.2346221144957714e-01  2.9349012295341832e-02  -5.0718190679698905e-02  2.3580464209452607e-02  3.2816350412535826e-02  3.1768006472694392e-02  -1.4754865534535136e-01  1.5149830403681898e-02  2.7392106093671646e-02  7.5448913928825900e-01  -1.7357276574885550e-01  1.4723170002190422e-02  3.1529195462793154e-02  -2.4825314310354868e-01  -5.2705856663064328e-02  9.8584759407115002e-03  7.7769751990541033e-03  3.1011933596478438e-02  8.1816353987668233e-01  2.6110876306308851e-02  2.9902236159043263e-02  1.6387518221516722e-02  1.9734901363657523e-02  3.8538749075012152e-01  9.3862416717496525e-03  3.4616276115129596e-01  -2.5067435187775142e-02  1.1682201720543317e-02  -3.3759513577069189e-01  -3.4589921123267109e-01  2.4399339223313228e-02  -3.3742110480322063e-01  -2.2628264813553706e-02  2.1649746891748350e-02  3.2572876876821533e-02  2.0681603917351903e-02  1.6765001608458716e-02  6.5064669641926786e-03  3.2063277526318901e-03  1.5443928150521598e-02  -1.5117026393905546e-02  3.3148841074193774e-02  -1.7856446423292652e-01  3.2603992105192839e-02  2.9040950532994467e-02  1.6874646812140633e-02  -6.7080636837460045e-02  -1.1156816949412332e-01  -8.2975378103074884e-02  -5.9407445912412739e-02  3.1525252207736748e-02  2.9782679187180666e-02  -2.4639052311231635e-01  -1.5406412776242520e-01  -1.7909092979874056e-01  3.1381649751103267e-02  5.9928792752228732e-01  3.3734333147450946e-02  1.2194389170329712e-02  -9.1130606967665076e-02  2.8032953100634233e-02  -2.1875593084413072e-01  1.8938443382102228e-02  -3.2850638594775872e-01  2.3730412375799221e-02  -1.3323725008316634e-01  -1.6260393605612070e-01  -1.9235788825046776e-01  1.4854808507762104e-02  2.6548995242397719e-02  3.3319310004237580e-02  2.3949693352465912e-02  1.9296101972622100e-02  -8.0555944473084673e-02  1.1398886382260232e+00  2.9491540988170528e-02  -1.0138564830259251e-03  -3.0088918998286762e-01  3.3499568636055722e-02  2.8224242085649259e-02  2.8492597113830547e-02  3.6539479827551589e-02  2.5572449423726211e-02  2.1538134752619547e-02  7.8251299141213048e-03  3.5828049220523739e-02  1.4225307595696672e-02  -2.8011170054717698e-02  -4.0998676542470677e-02  4.7306919296721839e-01  4.7132838096708057e-01  3.4563314066153886e-02  -2.5836200796046105e-01  2.0364269622874145e-02  7.8720124894988107e-03  2.0396300222043570e-02  2.6852799481647512e-03  3.1320621512658457e-02  2.3023291761834080e-02  6.1987659274710516e-01  -2.7710689214507558e-02  2.8351030692542335e-02  8.7668184072705282e-02  2.6143148762500729e-01  -1.0493348068676117e-01  1.5593332212340660e-02  3.1456062118371639e-02  -2.3303037332350957e-01  -2.1099666203911246e-01  -3.3122296555150338e-01  2.2431221340205379e-02  2.1516320347703028e-02  -2.5029141885954315e-01  4.5573022454516088e-01  7.6799923643895651e-01  6.8906956455710572e-03  -1.2649439667384307e-01  2.3769745158035788e-02  3.1959736982050700e-02  2.9731068627360260e-02  1.7966599005940557e-02  1.6646072043681250e-09  -1.9127712686537604e-01  3.2907418596313874e-02  2.3190792371224926e-03  -1.9797637442016200e-01  -1.9167604785122289e-01  1.0643368414658533e-02  -1.2336052737160158e-01  4.0670232571748793e-01  3.9157014083305014e-01  1.6403988580458280e-02  3.1561500609942596e-02  2.8238922077170322e-02  2.7436872460650331e-02  2.8136063886413282e-02  3.5400745068388202e-02  1.8625294093837327e-02  -1.6437581024993200e-01  3.1096422431599654e-02  2.8905713119667893e-02  2.6984993435125422e-03  -3.1055815599032610e-03  -6.5028719101637905e-02  -2.0626872746627370e-01  1.9167460158216975e-02  -1.1028679164374798e-01  6.0470082319400063e-02  -1.3774224742020469e-09  2.9508974683416168e-02  3.2958100061825174e-02  2.8923679058072992e-02  -1.3242969425252946e-01  2.6221613929431002e-02  1.3379192658780698e-02  5.1057695338278366e-03  1.6952553073439573e-02  7.8073612484145100e-03  -5.1545454081582112e-03  1.3041822065008490e-02  5.0077190993842160e-03  9.0681667324214559e-03  -6.1289592093126321e-03  3.5754308449477863e-02  3.3042912208979369e-02  -1.4762573171953732e-02  4.1064776138104786e-01  1.2920381237099779e-03  2.7342989609036271e-02  -4.5234929155484022e-02  5.6777775665186212e-03  6.5125162638543163e-03  2.8126473186862182e-03  -1.9063510815636242e-01  1.8115417357485213e-02  1.3425194032859576e-02  2.8824412837361580e-02  -2.1095512173419934e-01  2.4904225618655750e-02  2.6401299250488442e-02  2.5452546043020559e-02  -1.7562589992846245e-01  -1.8830164555653905e-01  3.1951840212193910e-02  -2.0278381155591671e-01  -2.3234935962466227e-01  -2.2568882838450419e-01  2.4444243836630752e-02  2.2418621878124888e-02  3.0327307419768610e-02  -4.0603699227575735e-01  2.1427955521766750e-02  -1.1961556983843748e-01  2.3512922880146760e-02  3.3719963533452674e-01  -2.0634646986888515e-02  1.7184050754557222e-02  -9.5856567367855958e-02  1.6646072043681250e-09  1.0947772551088057e+00  8.9540978644478098e-01  -1.1075686352998687e-02  -3.4434706398056084e-02  -1.2406645610352700e-01  2.9859804896066398e-02  3.1947633318910748e-02  -1.1158368966849068e-01  1.9202416569907271e-02  -1.6898447498168578e-01  5.3954140070266587e-01  4.8503806142718070e-01  4.8957846182483883e-01  1.8236953691269524e-02  9.2720843028021704e-03  2.9042276541835603e-02  3.0212049657692613e-02  3.0900025706708984e-02  3.2633070198295040e-02  5.4552883079726167e-01  2.1474510734113786e-02  -3.6029612348579737e-01  3.0448284105654162e-02  2.3443606514756295e-02  2.6706856640493607e-02  1.8901741776689490e-02  1.8154225516089962e-02  -1.7863065652217142e-01  3.1001637302121680e-02  -1.8804062815505929e-01  2.5186679570470289e-02  1.568164687969