<?xml version="1.0"?>
<VTKFile type="UnstructuredGrid"  version="0.1"  >
<UnstructuredGrid>
<Piece  NumberOfPoints="2426" NumberOfCells="4534">
<Points>
<DataArray  type="Float64"  NumberOfComponents="3"  format="ascii">0 0.41 0  0 0 0  2.2 0 0  2.2 0.41 0  0.2404508497187474 0.2293892626146237 0  0.25 0.2 0  0.2404508497187474 0.1706107373853764 0  0.2154508497187474 0.1524471741852423 0  0.1845491502812526 0.1524471741852423 0  0.1595491502812526 0.1706107373853764 0  0.15 0.2 0  0.1595491502812526 0.2293892626146237 0  0.1845491502812527 0.2475528258147577 0  0.2154508497187474 0.2475528258147577 0  0.5404508497187474 0.2293892626146237 0  0.55 0.2 0  0.5404508497187474 0.1706107373853764 0  0.5154508497187473 0.1524471741852423 0  0.4845491502812526 0.1524471741852423 0  0.4595491502812526 0.1706107373853764 0  0.45 0.2 0  0.4595491502812526 0.2293892626146237 0  0.4845491502812526 0.2475528258147577 0  0.5154508497187473 0.2475528258147577 0  1.1 0 0  0 0.205 0  1.1 0.41 0  0.55 0 0  0.55 0.41 0  0.275 0 0  0.275 0.41 0  1.65 0.41 0  1.65 0 0  1.375 0 0  1.375 0.41 0  1.925 0 0  1.925 0.41 0  0.8250000000000001 0.41 0  0.8250000000000001 0 0  1.5125 0.205 0  1.7875 0.205 0  0.9625000000000001 0.205 0  1.2375 0.205 0  2.2 0.205 0  0.7560964076246335 0.2151713709677419 0  1.99375 0.2152743902439024 0  2.0625 0 0  0.6875 0 0  2.0625 0.41 0  2.2 0.3075 0  0.6875 0.41 0  1.7875 0.41 0  1.375 0.1486128048780488 0  1.5125 0 0  1.7875 0 0  1.5125 0.41 0  0.9625000000000001 0 0  0.9625000000000001 0.41 0  0.4125 0 0  0.1375 0 0  0.1375 0.41 0  0.4125 0.41 0  1.2375 0 0  1.1 0.1486128048780487 0  1.2375 0.41 0  1.65 0.1486128048780487 0  1.126715909090909 0.2793064024390244 0  1.676715909090909 0.2793064024390244 0  1.348284090909091 0.2793064024390244 0  0.34375 0.3032389320646208 0  1.894702181800738 0.1282910975492754 0  2.092797818199262 0.1282910975492754 0  1.85625 0.3075 0  0.8630851210521902 0.286932093388664 0  0.89375 0.1025 0  0.35 0.1090282786671641 0  0 0.3075 0  0 0.1025 0  0.6526217841291382 0.288229645480046 0  0.7562500000000001 0.09660248895515888 0  0.6568633732316684 0.1557582854763441 0  2.099172119769978 0.25625 0  1.002356446954348 0.1010393851523063 0  1.99375 0.08395950269330846 0  1.459960956013612 0.3075 0  1.569025960719943 0.2986889805672169 0  1.03125 0.3278689922742084 0  0.75625 0.3247156761655783 0  1.959375 0.3126371951219512 0  1.749222215368287 0.1025 0  1.275777784631713 0.1025 0  2.2 0.1025 0  1.225938124459196 0.3075 0  1.550777784631713 0.1025 0  1.44375 0.07430640243902442 0  1.16875 0.07430640243902437 0  0.3528655045338512 0.2063263890916129 0  0.5890337614812103 0.08775733857679162 0  0.8504912436891263 0.190072835691683 0  1.899250267340833 0.2229966846119207 0  0.1020898364287272 0.3140258291809757 0  1.766482954545455 0.2934032012195123 0  1.051658316544432 0.2265720188842194 0  0.2 0.3400647632937836 0  1.421109702350723 0.2261157654379721 0  0.4812500000000001 0.41 0  0.4324401666997539 0.3216425986889796 0  0.098916018031319 0.09171660955420841 0  0.9508742791313441 0.2921736960864468 0  2.13125 0 0  2.118919042110979 0.3422084711244843 0  1.30625 0.41 0  0.20625 0 0  1.597888256393107 0.2173787389261347 0  0.4812500000000001 0 0  0.4324082967851086 0.08384041677422771 0  1.829299675393195 0.07400700849299596 0  0.568219932524165 0.3212274660843853 0  1.71875 0.41 0  0.268005226542646 0.08512186835670006 0  1.16875 0.41 0  2.038220665644273 0.332420740103091 0  0.6678017527842831 0.07701763866051195 0  0.89375 0.41 0  0.5111435174287687 0.07335351331957608 0  0.176193934632343 0.0734896648625108 0  0.07390688010811153 0.1697064032433452 0  0.05452951551825875 0.25625 0  0.61875 0.41 0  1.452769549894695 0.1548122580621249 0  1.369219062229598 0.07430640243902442 0  1.30625 0 0  1.720943423819132 0.1714577452753128 0  1.157188124459196 0.205 0  1.094219062229598 0.07430640243902437 0  1.304056576180868 0.1714577452753128 0  1.67579304192913 0.07430640243902437 0  0.2672907219039591 0.3037570723459566 0  1.209670467133757 0.1362100266964769 0  1.58125 0 0  1.03125 0 0  0.06875000000000001 0.41 0  0 0.35875 0  1.58125 0.41 0  1.631724228912893 0.3381867502687533 0  0.8240147050827157 0.1225233169495944 0  1.825608881788174 0.14499488549201 0  1.85625 0 0  1.44375 0 0  1.44375 0.41 0  1.85625 0.41 0  2.13125 0.41 0  0.7562500000000001 0.41 0  0.7562500000000001 0 0  0.89375 0 0  0.34375 0 0  0.34375 0.41 0  0.20625 0.41 0  0.06875000000000001 0 0  1.16875 0 0  1.03125 0.41 0  0.61875 0 0  1.71875 0 0  1.99375 0 0  1.99375 0.41 0  0.3972301426712326 0.2593842555611471 0  1.340625 0.3489494290853124 0  1.134375 0.3489494290853123 0  1.700180620188976 0.3438659752031281 0  0.5003922072260507 0.341765274319271 0  0.6212513815748759 0.2209216137134851 0  0.6885607720119526 0.215393731583638 0  1.033412357328477 0.1612902025713047 0  2.135782184673599 0.07126652247502523 0  1.668441847249787 0.2129203728327609 0  1.295782514339747 0.2378437748815763 0  1.409375 0.3520314716057996 0  2.129248544730567 0.1906135162504124 0  2.060771381434487 0.1989445750470348 0  2.013252586573865 0.1496169464686054 0  1.942766402200229 0.1734448904596831 0  1.895522487186454 0.06076163953489683 0  2.069553871656643 0.06605731020975725 0  0.9281250000000001 0.3539050257418612 0  1.274680914880868 0.3520219391081363 0  0.3030138498135347 0.2488370856812789 0  0.8223773249563684 0.341761430177996 0  0.9018164060227267 0.2326477848736739 0  0.8143027982392851 0.2440265179987191 0  0.7225087161029304 0.2699907246386231 0  1.614713220494657 0.09473434380863296 0  0.378125 0.3566194660323104 0  0.309375 0.3566194660323104 0  1.72990325744076 0.2380068107952482 0  0.6915936999299305 0.3429472631234433 0  0.6268087624932918 0.3466455500035671 0  1.356580098625191 0.2120393231351682 0  0.3060160055995138 0.1590148921620778 0  0.3954648733249218 0.156380553890791 0  2.034370752044885 0.2668681600792073 0  1.51768709249349 0.3426260931494756 0  1.561883724969884 0.1650446847858835 0  1.197344062229598 0.2523725417393646 0  0.9281250000000001 0.05124999999999999 0  1.804085235518364 0.3468178408964637 0  1.817887819205233 0.2589243285818559 0  0.9107805776841645 0.1653834539923287 0  1.905897727272727 0.3485060975609756 0  0 0.05125 0  0.844212276491354 0.0614201194265309 0  0.378125 0.05244637078450034 0  1.008571329007178 0.2705955969954818 0  0.7724048032149464 0.1559079561351474 0  0.7203054377831548 0.04941826955193545 0  1.192836486056382 0.3562350748565544 0  0.5967108020713719 0.1479294686523888 0  1.28257088594801 0.2944411014911587 0  0.7041890234548132 0.1222025174424443 0  1.474860187679412 0.2504218616229368 0  1.406767003493824 0.2829282258560709 0  0.3201325899091991 0.05890121548989159 0  0.5979220912872258 0.2727591995766724 0  1.845656689180403 0.1998310418452388 0  2.144958525570388 0.2909790873294231 0  2.2 0.15375 0  1.57794966442982 0.3540357145964566 0  0.9483181579620558 0.1214693369582054 0  0.0496154796471391 0.333125 0  1.508991196088596 0.1421783375065625 0  0.09776612425612034 0.2204896805326566 0  1.50436820029908 0.06143401634903343 0  1.223857000523521 0.0823554862453532 0  0.2531953886959507 0.3582003209055908 0  1.153316824384777 0.1289850171317837 0  2.148922302309752 0.1258841779285271 0  1.621993280276081 0.2841214267927899 0  1.550118654119087 0.2461998729100966 0  1.327182649291491 0.1216967252533594 0  1.753125 0.04556020050186112 0  1.271875 0.04556020050186116 0  0.9824282234771738 0.05051969257615314 0  1.039510847866381 0.05683351822678641 0  1.94956388244759 0.1180512551534177 0  1.949997712993411 0.04965831614304109 0  1.771961817615021 0.1530278789497521 0  1.909246823951428 0.2812757146784527 0  1.101974016627944 0.2038045618205013 0  0.7906250000000001 0.0444674049654372 0  1.948575539857022 0.2445328248721197 0  1.697271520964565 0.1233917627620729 0  1.065625 0.3689344961371042 0  1.085849084308977 0.3170853572226867 0  0.9840604787624379 0.3582077516409966 0  1.577403511714593 0.05463601888079143 0  0.05622663515370135 0.05493816910862376 0  0.8762396958822678 0.3392249777398821 0  1.751571320346033 0.3651102912045228 0  1.055327852410105 0.111864799513911 0  0.1583785085108421 0.2994699345738728 0  0.1455283439499995 0.3542795598723423 0  2.2 0.35875 0  0.225705107073232 0.05084786997482401 0  0.1455852234589313 0.1166494778469164 0  1.466879772203159 0.3611261772912453 0  1.990280163552011 0.3564754268533217 0  1.17471064520912 0.2990917256188288 0  0.7221925551074015 0.1739659241003985 0  0 0.25625 0  2.2 0.25625 0  2.2 0.05125 0  0 0.15375 0  1.853978576207987 0.35875 0  0.21965520498276 0.1015543880164422 0  1.515638456102889 0.2882700110184686 0  0.09048297387599738 0.3637717362208066 0  2.150453692751374 0.2387066338105111 0  1.323782677156475 0.04897634338873398 0  1.409375 0.03715320121951221 0  1.406484531114799 0.1087852750766809 0  1.134375 0.03715320121951218 0  1.627401732573545 0.04552157221025036 0  0.446875 0.3713289093361426 0  2.045405893604797 0.1105340662939892 0  1.255408269734577 0.1577307500159216 0  2.028125 0.03707597992059326 0  0.04420832937638274 0.128125 0  0.5817551710628505 0.3702615006034757 0  0.1197849154434487 0.2663398672460083 0  1.248258025468107 0.2565907092181813 0  0.1300647302703173 0.0508462728378621 0  0.7738123537510222 0.2761231499240648 0  1.203125 0.0366132337404304 0  0.5444207041612499 0.111205399508622 0  0.8016457771828226 0.1964238426015905 0  2.072662025974815 0.2975086504196739 0  0.4019040438866802 0.2103993403217561 0  0.4677372330974851 0.04827477407630658 0  0.8677218578847617 0.1432970430140788 0  1.058011122005847 0.2758866204059919 0  0.4429405887974043 0.2746184809910084 0  0.5843750000000001 0.03726989681835222 0  0.6318596133730142 0.1128692182767254 0  0.4862628454464408 0.2957029785303028 0  0.7805186758662764 0.3673578380827891 0  1.887722846421017 0.1760882698830035 0  0.3498893058880703 0.256189258793856 0  1.472640588990488 0.1118278026240017 0  1.865937103925594 0.2604137786483804 0
[...]
<PointData  Scalars="f_43"> 
<DataArray  type="Float64"  Name="f_43"  format="ascii">4.2856121563935828e-01  4.5908117319801095e-01  -7.2173001406417409e-10  1.4434500309174102e-09  -3.5565710051065391e-01  -3.1956910734969030e-01  -3.4252411529066112e-01  -5.1003625577329703e-01  -9.2727585730426820e-01  8.6861672520739064e-01  2.0024651222357379e+00  4.0605534201281973e-01  -1.1524518952265141e+00  -5.0266873077343233e-01  -2.7414613412231681e-01  -2.4937336753503947e-01  -2.8405304384715413e-01  -4.5354829283726955e-01  -1.2864536222386994e-01  -1.0524540915402929e-01  -2.8652726819629487e-01  -1.3222341769523741e-01  -6.2037330655481886e-02  -5.1553598496780573e-01  -1.2172772142995066e-02  7.7067957133983700e-01  -3.6106261905520009e-03  -1.9738356728418405e-01  -1.9113636908800233e-01  6.2063486579728685e-03  2.6755132281539602e-02  8.6107637625218742e-03  2.2554014246926733e-02  1.3938797769330576e-02  1.9656232651152145e-02  1.1977775142720149e-03  1.0846179158284130e-02  -8.6214296203364599e-02  -7.9129977472607207e-02  1.7449815742277528e-02  1.1091976429172107e-02  2.0293204931547636e-02  1.0704114916445837e-02  1.5992854941650104e-08  -5.6910794769512725e-02  -2.2032979452416006e-03  6.7918641200056086e-04  -1.4888684001575470e-01  -6.8781987426683993e-03  6.7586046084724777e-09  -1.4035035151732309e-01  1.7607498496383846e-02  1.1030084996579821e-02  1.7593172436674145e-02  1.1446579495223987e-02  2.0794351386712703e-02  -3.0210301005300609e-02  -4.3155183778338886e-02  -1.8741290832401328e-01  3.7582261921192672e-01  3.5332696517151457e-01  -1.7082990416544885e-01  1.6354188245691157e-02  7.4320945172398848e-03  4.6208330979677202e-04  2.2094453336213848e-02  6.3908265054396186e-03  7.8537866101743917e-03  1.9101487814256603e-02  -2.5059408628720048e-01  1.2636985430160477e-03  -2.0779595444976253e-03  1.6080298386555111e-02  -3.6598270388452099e-02  -2.0695279366339511e-02  -2.8879201386878833e-01  5.2515112488605498e-01  5.5901847495404133e-01  -1.7739616411582548e-01  -9.5140099621936716e-02  -2.0864111492179988e-01  -1.1280131445568454e-02  -1.3560391060227472e-02  1.3468181494160946e-03  2.7836491589291922e-02  1.1970078105490800e-02  -1.1979810557820502e-02  -9.9039703917325389e-02  9.8501153817418738e-03  1.7769280714818904e-02  2.0894371433469273e-02  -3.9481413681696190e-09  4.0238159915389652e-04  2.0611019996923264e-02  1.0023163991862984e-02  4.1825538334331960e-03  -3.4883480687160240e-01  -2.1681061667540136e-01  1.3439393294967801e-02  6.0265154368834440e-03  4.6861306976881839e-01  1.7469492007830493e-02  2.2303734133419705e-02  1.5701647110130695e-01  2.5205718153754133e-02  -1.9305825735915078e-01  -2.0863658981031535e-01  4.9761061459163741e-01  -1.6614118414615419e-02  1.4267576957155857e-03  -1.0459641260483741e-02  7.7887590698392430e-03  2.0357852183287625e-01  4.8745363479478021e-03  -2.0208741317999721e-01  -2.0770942882225821e-01  4.8556946735555584e-03  -2.1582225658109960e-01  1.3574470920818793e-02  -1.4314279092485119e-01  1.8510796336302908e-06  -5.9628796525324082e-03  -1.6189361723171430e-01  -6.6187435502025854e-02  -2.1734939902843625e-01  2.2021039951989715e-01  9.0316922113210174e-01  7.2569917824989061e-01  -1.7063402822075399e-01  1.1834598732956350e-02  1.3449271413326672e-02  1.8257278911913463e-02  1.7119111385253065e-02  1.2113318367105502e-02  -1.3371193926408903e-02  1.8474132752112123e-02  2.2476579587402033e-02  -1.8134514072349822e-01  1.8973565760764730e-02  2.2315010551462473e-02  -2.2259754936498045e-02  4.1639535864256211e-01  4.4073412684630126e-01  1.1637845186723509e-02  5.0532340346064152e-03  -2.7358267576259258e-02  2.9503696427949332e-03  3.8714930018294313e-03  1.2743652474917039e-02  2.5707253104060562e-02  1.5751726951027459e-02  -6.4431671029884134e-03  -1.1022276926208874e-01  -1.1474792978781341e-01  -4.8301104027784196e-02  -1.3152232195074862e-01  -1.0178701589908937e-01  2.0319267148859843e-01  4.4476188719862447e-01  3.6546805103056671e-03  -1.9043768786817506e-02  -1.7610728543353638e-01  1.9092089445200772e-02  8.4447421967175605e-04  2.2810571026312663e-03  -3.3492348656704518e-01  1.3061329902281460e-02  1.6415767802260230e-03  1.0195043955141760e-02  -2.0616774757275871e-01  -2.3343441337874785e-01  -1.4362219164859716e-01  3.6148844623477947e-03  1.3911847904495077e-03  6.6506917318091751e-03  1.3757664010766854e-02  2.5428370820041520e-02  -8.7199931917509698e-03  -1.5670528371015725e-02  1.4313512031459217e-03  3.3453864878404851e-03  7.3826636035674163e-04  -1.7014756412436300e-04  -5.3669574306032398e-02  1.3331299949788397e-03  -3.4777803784647987e-01  -7.8888347214224858e-02  8.1689676140341734e-03  -2.9106243209645392e-02  -1.0514705603839498e-01  2.3211930830713202e-02  -1.6176122877943111e-01  -7.8735304481496543e-02  1.4926748934717432e-02  -1.3581050452285923e-01  -1.7144101929148581e-01  1.9680567716472707e-02  -3.4402322383795836e-01  -3.6245219037796278e-01  -8.2108491126654231e-03  2.1501773461838427e-02  1.9955337699735592e-02  2.0768395579984027e-03  -3.3778947623127616e-02  1.8520689068314569e-02  1.7137570021663107e-02  1.9791537247625276e-02  1.3113195736625616e-02  4.7200981491388699e-01  -6.2459124650373080e-02  -1.8307887279993842e-01  9.4371431253676055e-03  -4.2596901663505375e-02  -1.2953663937161283e-01  -3.3028281414507920e-04  -2.5153339476326114e-01  5.7407930651909517e-03  -1.3758299463509593e-01  2.5117600609030285e-02  2.5813070362300183e-02  -1.2634081577899881e-01  -2.4031350329896797e-01  2.1774594635625530e-03  -7.9528629136620798e-03  -1.2258692424976598e-08  1.0840332875317564e-02  -5.3357850082562169e-03  4.6414839106624783e-01  1.7733337065121087e-02  1.1227894700758538e+00  1.5915547903353807e-02  1.7057488610284957e-02  3.6775556691488187e-02  1.0714231106815143e-02  6.0320944577879046e-04  5.2632593465590629e-03  1.1421115012573623e-02  1.6693230933835200e-02  1.6253242316749381e-02  1.9861511296970964e-02  -2.5218930844175463e-02  -2.1126080075839351e-02  2.8436447624279777e-03  9.5598670679473063e-04  1.1002331618658103e-02  1.4266102095396839e-02  1.3833335640696821e-02  -9.3839268824593980e-02  8.6028612947809842e-03  2.1679491571722904e-02  -8.4719056367785050e-03  1.4475338991483985e-03  -3.3948182493405435e-02  2.2520574403439030e-02  4.6518310003584085e-01  -6.4251736729125986e-02  1.6504176591219659e-02  -8.4464376022784660e-03  2.3630424905811817e-01  3.2771023336604066e-01  -6.0804562680745180e-09  1.0532347197876935e-01  3.4362045331160901e-01  2.6582854089597829e-02  3.4199115664657297e-03  3.0127892077104769e-03  -1.0990525347149339e-01  6.7638851536971034e-01  6.7586046084724777e-09  1.6271268502737142e-09  7.0261680156760842e-01  1.6008795733979061e-02  -1.3374815777924220e-01  2.0648159520872209e-02  4.0775173323448510e-01  -3.4480852753933353e-03  1.8071309580396613e-02  1.1498087463076557e-02  1.0798354778267951e-02  -5.5934383863979337e-03  2.3106410250455619e-02  -1.8652912518548875e-01  -9.7010595212089436e-05  2.1083114090567494e-02  3.5387458616020930e-04  6.4584405252107169e-01  -1.8377543370026456e-01  6.7206356291060632e-01  5.6000520533574186e-03  3.8137301861945699e-01  -6.8725138216701842e-02  1.1264349927951323e-02  -2.7281466970430884e-01  -1.3955530709868623e-02  -1.1507573780743201e-02  -3.2761482027840849e-01  -1.9993934703932711e-01  7.2347482966954747e-03  9.4701769228596779e-03  -2.0753973366943998e-01  -1.8851710043492739e-01  -2.0919934933155357e-01  -2.1583135078979410e-01  -9.7697073604434692e-02  9.1026537219002939e-04  -3.5413392450305803e-01  1.2755868142727868e-02  1.5492143793155735e-02  1.8465435628780820e-03  1.7275491465178976e-02  -1.2449389182704476e-01  2.1147539117349585e-02  -1.2467879778694811e-01  -1.7230115042367386e-01  -1.1649603116747922e-01  1.8226173688224333e-02  -2.1971816365874014e-01  -1.9432866058258519e-01  1.3274751021100706e-02  -2.8387057533727189e-01  -2.3425553683228079e-01  1.7469933446693557e-02  8.2424063821184856e-04  1.3291896607165111e-02  -5.4716123482217771e-02  -3.0778280113425757e-03  -3.4019226531951557e-01  -3.5175848080241218e-01  2.2344826810798305e-02  -3.5324290979385414e-01  9.1060021021540094e-01  1.8162643109703891e-02  8.4580763518501567e-01  1.2438487176418135e-03  -9.8499700004671936e-03  -3.7465290293796284e-02  -4.7536561290356123e-03  -8.0634288968455762e-03  -9.5807051710205936e-03  -1.8161367027875994e-02  1.6162786661687970e-02  8.8746285661017357e-03  -1.5024056820793130e-01  -2.8218189411724598e-01  1.0774147432565039e-02  -7.6213700479602339e-02  1.7904007814148232e-03  2.6235509203162085e-02  1.7850874216010563e-02  1.4600003313362470e-02  1.1199079762071322e-02  -1.9479204382059001e-01  -1.9248289771069177e-01  1.6189874177867086e-02  2.1341438015520322e-02  2.0351978372854612e-02  1.3812436998689476e-03  -4.4154861642754159e-03  4.2606794767107353e-01  -2.9601582979712765e-01  -3.2034654561518487e-02  2.9352425233318919e-03  1.0206105013376246e-02  7.1970090860045517e-04  -7.2504535114555707e-02  2.0409941477137081e-02  9.1999381552515091e-03  -4.4445988491302921e-02  1.4632693063639762e-02  1.7202410657431898e-02  1.4889374086002395e-02  2.9962816252476582e-01  7.7482266047741105e-03  -2.0229146562374842e-01  -2.0042890272229441e-01  -1.7341188226553454e-02  2.8829669313439155e-01  -3.1422220665671147e-03  -2.0608910259168695e-02  1.3662285852897903e-02  -2.4217597902232829e-01  -7.5995791641617007e-04  -9.5589620185304678e-03  1.2858879498873179e-02  5.2805456249418441e-03  -2.6200611143063335e-01  -1.4930657392596183e-01  7.7811892750192287e-03  -2.7815107119595179e-03  5.3516016724662286e-03  1.3398009007179780e-02  1.2626753297048918e-02  -2.5221158767055702e-03  4.2076458898135111e-01  9.9338433663306146e-03  -1.4876955957999313e-01  -2.0083458085068706e-01  -1.1851515206125612e-01  7.3924014445003749e-04  -3.3289570364961407e-01  1.3649322117047292e-02  -6.2585225504030215e-02  3.0131871902626295e-03  1.8881927786275293e-03  1.0394063579345792e-03  -2.1877818088305412e-02  1.6440959821398142e-02  2.0997757459192253e-02  2.2255392542636181e-02  2.2837919179795774e-02  4.5640465819327930e-01  4.2891465390393058e-01  -4.7106335541142151e-03  9.8541735139614246e-03  -7.7149022150297786e-02  -6.9027115921735299e-02  2.7956807875704750e-03  -4.3406321520905516e-03  5.6099582594227038e-01  -2.3886792534284249e-01  6.9747679748116498e-01  -1.7199670540820047e-01  1.3163783151115785e-02  -8.9829704177150277e-02  -3.7148777241134794e-02  -2.5379923707484126e-01  1.4883251902156580e-02  7.6681747392101451e-01  -1.8122833179068154e-01  5.3784568253034002e-05  2.6759097195617323e-02  2.5853168126426629e-01  1.9626117161811237e-02  6.0147167109515165e-01  1.8836649166100429e-02  -1.2612450281871093e-01  1.3579899565713989e-02  1.4095643292980140e-02  1.8536212568381283e-02  1.8666121922311433e-02  1.3245517369731303e-02  1.4684592836259560e-02  -4.7093530630584381e-03  2.0407227367380175e-02  1.4483079690936299e-02  -1.9531239296449196e-01  3.5758610088234373e-03  -2.0024485144163121e-01  -1.6390634652451380e-01  1.2560753385715219e-02  1.9874978768420717e-02  5.3331838293851297e-01  6.8032268102233510e-03  5.2665683787652857e-03  2.3772513699465492e-01  4.3995416478577348e-01  -3.0642519996134713e-02  5.0236216379908738e-01  7.4680251454458174e-03  -5.5268915204424604e-02  1.5845476737854112e-02  -2.0167944633845719e-01  1.8858236084121287e-02  7.2073635872572156e-03  -1.8040874435621818e-01  -6.5055191312551552e-02  -1.6478976755556252e-02  -1.1994299657022417e-02  1.9821387811854926e-02  -1.2294800802617314e-02  -3.5245039197314150e-02  -1.0166155869405277e-02  -3.1115433243662392e-03  1.8422952381127688e-02  2.0269436789733232e-02  -3.3911609661639947e-01  1.0330964521075183e-02  -1.0995930715592833e-03  2.0517434706924637e-03  -7.4268875531921717e-05  2.7148721444297508e-03  -9.0923657144019246e-03  6.5152939318597223e-03  1.6229979388686048e-03  4.8674696655897996e-03  1.9358520469851367e-04  -1.9883551749594192e-01  -1.9324979899765424e-01  1.0174943322878831e-01  -8.0079774095559150e-02  -1.1331348342110652e-01  -1.9524020481762144e-01  -1.7184689733052955e-01  1.3672877312048497e+00  -2.3825907088588599e-02  1.6028726182673303e-01  4.4156433414361726e-04  -6.7163670105715458e-04  7.1238262479545187e-03  1.3860292311055922e-02  1.9645375102109678e-02  4.3413532897263541e-03  1.1512722022765013e-02  -3.6261910828862269e-03  -2.2177516868009974e-04  -3.2122485686868230e-01  -1.9814407781392149e-01  3.0704908978899389e-04  -3.3495893469678123e-01  -2.6335953483149083e-01  1.6953377439579410e-02  -2.8764890900738088e-01  -3.4960951943559992e-01  2.6410821543911368e-02  1.0599706360211255e-02  4.8536864849318078e-04  -5.8636310725745803e-03  9.1562378897970236e-03  3.1945184324773546e-03  -2.2251908763172967e-01  -1.1683222131570468e-03  7.9107658722850881e-03  1.2146924574014957e-02  3.2134170691516363e-03  1.6300017645787056e-02  1.1939949255347032e-03  1.1384055200908431e-03  1.2368446514483921e-02  2.4555243354812933e-02  1.6407188251182134e-02  -9.6359123475552432e-03  1.5781102542651436e-02  -1.3184589354557913e-01  -3.7573422373016696e-02  -5.4969303462061775e-02  2.4012689217150798e-02  -4.7252083400231293e-03  -3.2380844593498156e-03  -1.8166781659689175e-02  -1.8546622396101700e-01  -1.6593225575796836e-01  -1.4271643226964484e-01  3.9338430601526886e-01  1.1448130830195910e-01  -9.7379023405322895e-02  -1.8975813349765172e-01  -1.8336612763432528e-01  -9.6888416457670726e-02  -4.8585944024414088e-02  -1.1238445234423937e-01  -1.5488745691385328e-01  -1.5618031896066653e-01  1.1061826902411351e-02  2.2892594404700744e-02  1.0568603535977704e-03  1.8670470845818736e-02  6.7540631552659132e-04  7.0455386004789657e-03  -2.5815530513831206e-02  1.3134813544716460e-02  -1.4498297162799337e-01  1.8356682785687819e-03  1.7531838865816524e-02  1.9438969707503088e-02  1.5772126878844224e-02  1.1003806166663920e-02  1.7399124111381368e-02  -8.7589372129970727e-02  -6.0976214260167610e-02  -3.1541826939813167e-01  -3.3550626089757152e-01  -1.5948033228008868e-01  -4.8004104685539003e-03  2.0312562555193894e-02  1.4141845251525603e-02  2.3799654006775927e-02  3.9618014584513234e-01  1.6819224426050461e-03  1.8118321077388404e-02  2.5386711532461474e-02  -9.7354504013410309e-02  1.1763302478078517e-03  2.9135043280080197e-01  2.8066987066458174e-02  2.5538402631139687e-02  1.2003959179715518e-02  1.4272842162037168e-02  1.7665792680161239e-03  -1.3226599422267743e-01  1.1330926927378540e-02  -6.4661594152308460e-02  4.7308447883706931e-03  7.2341178404166954e-03  1.6348999240971329e-02  -1.5619821692017080e-01  1.2815696566457315e-02  2.3253489465151066e-02  7.4081802579366596e-01  -1.9113085881262448e-01  -1.1320290432198118e-02  2.2774121753539427e-02  -2.6266449007220877e-01  -5.8519734937202049e-02  3.2690364314011291e-04  -8.3588654900313049e-04  1.3814268667625165e-02  8.0446966348022209e-01  -1.0968527432213097e-03  1.2280942381744282e-02  3.1014880633981399e-03  2.7512467644237684e-03  3.7165253307452056e-01  -1.2335778378746705e-02  3.3260552964012635e-01  -4.6097333042644073e-02  -6.2563268798060791e-03  -3.4908263213242041e-01  -3.5863319678776501e-01  1.7753285301502709e-02  -3.5193188163347655e-01  -2.5164488712829280e-02  1.7389540935558022e-02  9.0352254849975552e-03  1.2296149743221789e-02  1.6031057508193280e-03  2.5538787026378558e-03  -2.9161444717415242e-03  -7.6730419669381834e-03  -3.4912083016140870e-02  2.1682852898871299e-02  -1.9262711281137329e-01  2.2722988199459185e-02  2.3200199731433124e-02  1.2466868326077903e-02  -7.8309141966989737e-02  -1.1227028238040786e-01  -9.4507093169386783e-02  -7.1514335955870756e-02  1.2699685437786948e-02  1.3631865085313551e-02  -2.5853623165047040e-01  -1.6475980545926766e-01  -1.9054292841353268e-01  9.6648780624887815e-03  5.8570006207912484e-01  1.7686285531659227e-02  -1.7140966163668558e-03  -1.0446700688633954e-01  1.6437964417509554e-02  -2.3160781857091184e-01  1.4757303602694255e-02  -3.4091612530298032e-01  4.2995831883605763e-03  -1.4653364411469758e-01  -1.7589353386826123e-01  -2.0562733767223348e-01  1.0914113133667276e-02  2.0021877526382889e-02  2.1395111918010499e-02  1.3100482752510148e-02  4.8401139498710852e-04  -9.6842105861997665e-02  1.1261838017872725e+00  1.6701740800016331e-02  -3.1032792722223295e-02  -3.1439743096546824e-01  7.9194760879828137e-03  2.8108616412160468e-03  1.3871010686411424e-02  1.2438206509493618e-02  1.8059806765694582e-02  1.7024848540338654e-02  -1.5475028701953350e-02  1.5881259915034265e-02  5.3560049271270645e-03  -3.2804938347874325e-02  -4.4006270210394945e-02  4.5948233392372961e-01  4.5774133122543181e-01  2.0313934597688748e-02  -2.7251123725964643e-01  1.3612081040353046e-04  -2.3506546901905919e-03  2.1273256783962521e-02  -4.6653575339849580e-03  3.7293462001226686e-03  2.3279040429061211e-02  6.0616846198874441e-01  -4.0754327056956197e-02  1.5857832785730983e-02  7.3917568176913251e-02  2.4768466470987549e-01  -1.1868641659913623e-01  3.0271110658605643e-03  1.4145611144341276e-02  -2.4797633534366967e-01  -2.3363565362795607e-01  -3.4432836675672246e-01  2.0493308757953320e-02  1.6579288546194965e-02  -2.6279014344365759e-01  4.4214609305769287e-01  7.5432433819600075e-01  2.3881040995369447e-04  -1.4933501980487443e-01  6.0562090961532198e-03  3.1413057125090878e-03  2.2878022670671145e-02  1.5570698330910904e-02  1.5992854941650104e-08  -2.0418009674047052e-01  5.5831381613320047e-03  1.8230633858195842e-03  -2.1106815365668491e-01  -1.9756760470791160e-01  -1.1379371685190121e-02  -1.4267931713877649e-01  3.9297584846482847e-01  3.7784281906525991e-01  1.3526498583958203e-02  2.2648673460748604e-02  2.5487010987168091e-02  2.5422406765864814e-02  2.1783562100815952e-02  1.1807586521136663e-02  1.5242482120852741e-02  -1.7751352832985751e-01  2.3867443937097253e-02  2.7938148049732263e-02  -9.4300325399110743e-04  -5.7614408161134820e-03  -7.6724302395769439e-02  -2.1922524595903942e-01  2.1769267838566064e-03  -1.2361207292944647e-01  4.7014230262006990e-02  -3.9481413681696190e-09  3.4901434410645180e-03  9.8653595041556484e-03  3.3384799846334148e-03  -1.5363574895308146e-01  1.9230380706709165e-02  -1.2433636090760222e-02  3.1405964538139559e-03  6.8082634482853049e-03  -7.4641602312884988e-03  -1.0865858198637673e-02  1.3505091133326894e-04  -1.6441478829313048e-02  -1.6765774700761498e-02  -2.1494793342823910e-02  1.4857572566062356e-02  4.2775360908662817e-03  -3.7209864824980281e-02  3.9707529158694760e-01  -2.0574950749488237e-02  1.7206983887690729e-02  -5.2422151590167942e-02  -9.4242149009626866e-03  -7.9018616922574801e-03  -3.8716256461546884e-03  -2.0460993943215144e-01  9.5804140149820475e-03  5.1187704179562451e-03  4.9113926050753055e-03  -2.2880875358274461e-01  1.9052889523783912e-02  1.7692748749095884e-02  1.3330393441469158e-02  -1.9141549425588250e-01  -2.0318652082671207e-01  2.2500801500996804e-02  -2.0896135350386885e-01  -2.4298014149894984e-01  -2.3782638803465464e-01  1.4882607324083670e-02  6.5712985100000324e-03  1.7190214058333823e-02  -4.1960674467630238e-01  -1.2791017952236382e-03  -1.3810019228650383e-01  2.1100519706080002e-02  3.2344897824885399e-01  -2.2084215817752977e-02  -7.3325405692718001e-03  -1.1412423622934766e-01  1.5992854941650104e-08  1.0811321204992947e+00  8.8173538579001853e-01  -2.3220353163815620e-02  -5.7328177765930535e-02  -1.2942921265454849e-01  1.0798232555650123e-02  7.3474279146725704e-03  -1.1990328192625753e-01  1.1764036732894900e-03  -1.7778027727397988e-01  5.2583318484399233e-01  4.7132369384344852e-01  4.7586411879631590e-01  3.5596013016928221e-03  -1.5612370693601770e-02  1.6414764878635975e-02  1.0389849636725559e-02  6.3271704433276038e-03  1.4975472511101666e-02  5.3196866779192264e-01  1.1575760847266811e-02  -3.7400373124085795e-01  1.9691766702311462e-02  5.4651888937176964e-03  1.8215830870834358e-02  7.6919709324437717e-04  9.7416907657218174e-04  -1.9296102405489082e-01  1.42