<?xml version="1.0"?>
<VTKFile type="UnstructuredGrid"  version="0.1"  >
<UnstructuredGrid>
<Piece  NumberOfPoints="2426" NumberOfCells="4534">
<Points>
<DataArray  type="Float64"  NumberOfComponents="3"  format="ascii">0 0.41 0  0 0 0  2.2 0 0  2.2 0.41 0  0.2404508497187474 0.2293892626146237 0  0.25 0.2 0  0.2404508497187474 0.1706107373853764 0  0.2154508497187474 0.1524471741852423 0  0.1845491502812526 0.1524471741852423 0  0.1595491502812526 0.1706107373853764 0  0.15 0.2 0  0.1595491502812526 0.2293892626146237 0  0.1845491502812527 0.2475528258147577 0  0.2154508497187474 0.2475528258147577 0  0.5404508497187474 0.2293892626146237 0  0.55 0.2 0  0.5404508497187474 0.1706107373853764 0  0.5154508497187473 0.1524471741852423 0  0.4845491502812526 0.1524471741852423 0  0.4595491502812526 0.1706107373853764 0  0.45 0.2 0  0.4595491502812526 0.2293892626146237 0  0.4845491502812526 0.2475528258147577 0  0.5154508497187473 0.2475528258147577 0  1.1 0 0  0 0.205 0  1.1 0.41 0  0.55 0 0  0.55 0.41 0  0.275 0 0  0.275 0.41 0  1.65 0.41 0  1.65 0 0  1.375 0 0  1.375 0.41 0  1.925 0 0  1.925 0.41 0  0.8250000000000001 0.41 0  0.8250000000000001 0 0  1.5125 0.205 0  1.7875 0.205 0  0.9625000000000001 0.205 0  1.2375 0.205 0  2.2 0.205 0  0.7560964076246335 0.2151713709677419 0  1.99375 0.2152743902439024 0  2.0625 0 0  0.6875 0 0  2.0625 0.41 0  2.2 0.3075 0  0.6875 0.41 0  1.7875 0.41 0  1.375 0.1486128048780488 0  1.5125 0 0  1.7875 0 0  1.5125 0.41 0  0.9625000000000001 0 0  0.9625000000000001 0.41 0  0.4125 0 0  0.1375 0 0  0.1375 0.41 0  0.4125 0.41 0  1.2375 0 0  1.1 0.1486128048780487 0  1.2375 0.41 0  1.65 0.1486128048780487 0  1.126715909090909 0.2793064024390244 0  1.676715909090909 0.2793064024390244 0  1.348284090909091 0.2793064024390244 0  0.34375 0.3032389320646208 0  1.894702181800738 0.1282910975492754 0  2.092797818199262 0.1282910975492754 0  1.85625 0.3075 0  0.8630851210521902 0.286932093388664 0  0.89375 0.1025 0  0.35 0.1090282786671641 0  0 0.3075 0  0 0.1025 0  0.6526217841291382 0.288229645480046 0  0.7562500000000001 0.09660248895515888 0  0.6568633732316684 0.1557582854763441 0  2.099172119769978 0.25625 0  1.002356446954348 0.1010393851523063 0  1.99375 0.08395950269330846 0  1.459960956013612 0.3075 0  1.569025960719943 0.2986889805672169 0  1.03125 0.3278689922742084 0  0.75625 0.3247156761655783 0  1.959375 0.3126371951219512 0  1.749222215368287 0.1025 0  1.275777784631713 0.1025 0  2.2 0.1025 0  1.225938124459196 0.3075 0  1.550777784631713 0.1025 0  1.44375 0.07430640243902442 0  1.16875 0.07430640243902437 0  0.3528655045338512 0.2063263890916129 0  0.5890337614812103 0.08775733857679162 0  0.8504912436891263 0.190072835691683 0  1.899250267340833 0.2229966846119207 0  0.1020898364287272 0.3140258291809757 0  1.766482954545455 0.2934032012195123 0  1.051658316544432 0.2265720188842194 0  0.2 0.3400647632937836 0  1.421109702350723 0.2261157654379721 0  0.4812500000000001 0.41 0  0.4324401666997539 0.3216425986889796 0  0.098916018031319 0.09171660955420841 0  0.9508742791313441 0.2921736960864468 0  2.13125 0 0  2.118919042110979 0.3422084711244843 0  1.30625 0.41 0  0.20625 0 0  1.597888256393107 0.2173787389261347 0  0.4812500000000001 0 0  0.4324082967851086 0.08384041677422771 0  1.829299675393195 0.07400700849299596 0  0.568219932524165 0.3212274660843853 0  1.71875 0.41 0  0.268005226542646 0.08512186835670006 0  1.16875 0.41 0  2.038220665644273 0.332420740103091 0  0.6678017527842831 0.07701763866051195 0  0.89375 0.41 0  0.5111435174287687 0.07335351331957608 0  0.176193934632343 0.0734896648625108 0  0.07390688010811153 0.1697064032433452 0  0.05452951551825875 0.25625 0  0.61875 0.41 0  1.452769549894695 0.1548122580621249 0  1.369219062229598 0.07430640243902442 0  1.30625 0 0  1.720943423819132 0.1714577452753128 0  1.157188124459196 0.205 0  1.094219062229598 0.07430640243902437 0  1.304056576180868 0.1714577452753128 0  1.67579304192913 0.07430640243902437 0  0.2672907219039591 0.3037570723459566 0  1.209670467133757 0.1362100266964769 0  1.58125 0 0  1.03125 0 0  0.06875000000000001 0.41 0  0 0.35875 0  1.58125 0.41 0  1.631724228912893 0.3381867502687533 0  0.8240147050827157 0.1225233169495944 0  1.825608881788174 0.14499488549201 0  1.85625 0 0  1.44375 0 0  1.44375 0.41 0  1.85625 0.41 0  2.13125 0.41 0  0.7562500000000001 0.41 0  0.7562500000000001 0 0  0.89375 0 0  0.34375 0 0  0.34375 0.41 0  0.20625 0.41 0  0.06875000000000001 0 0  1.16875 0 0  1.03125 0.41 0  0.61875 0 0  1.71875 0 0  1.99375 0 0  1.99375 0.41 0  0.3972301426712326 0.2593842555611471 0  1.340625 0.3489494290853124 0  1.134375 0.3489494290853123 0  1.700180620188976 0.3438659752031281 0  0.5003922072260507 0.341765274319271 0  0.6212513815748759 0.2209216137134851 0  0.6885607720119526 0.215393731583638 0  1.033412357328477 0.1612902025713047 0  2.135782184673599 0.07126652247502523 0  1.668441847249787 0.2129203728327609 0  1.295782514339747 0.2378437748815763 0  1.409375 0.3520314716057996 0  2.129248544730567 0.1906135162504124 0  2.060771381434487 0.1989445750470348 0  2.013252586573865 0.1496169464686054 0  1.942766402200229 0.1734448904596831 0  1.895522487186454 0.06076163953489683 0  2.069553871656643 0.06605731020975725 0  0.9281250000000001 0.3539050257418612 0  1.274680914880868 0.3520219391081363 0  0.3030138498135347 0.2488370856812789 0  0.8223773249563684 0.341761430177996 0  0.9018164060227267 0.2326477848736739 0  0.8143027982392851 0.2440265179987191 0  0.7225087161029304 0.2699907246386231 0  1.614713220494657 0.09473434380863296 0  0.378125 0.3566194660323104 0  0.309375 0.3566194660323104 0  1.72990325744076 0.2380068107952482 0  0.6915936999299305 0.3429472631234433 0  0.6268087624932918 0.3466455500035671 0  1.356580098625191 0.2120393231351682 0  0.3060160055995138 0.1590148921620778 0  0.3954648733249218 0.156380553890791 0  2.034370752044885 0.2668681600792073 0  1.51768709249349 0.3426260931494756 0  1.561883724969884 0.1650446847858835 0  1.197344062229598 0.2523725417393646 0  0.9281250000000001 0.05124999999999999 0  1.804085235518364 0.3468178408964637 0  1.817887819205233 0.2589243285818559 0  0.9107805776841645 0.1653834539923287 0  1.905897727272727 0.3485060975609756 0  0 0.05125 0  0.844212276491354 0.0614201194265309 0  0.378125 0.05244637078450034 0  1.008571329007178 0.2705955969954818 0  0.7724048032149464 0.1559079561351474 0  0.7203054377831548 0.04941826955193545 0  1.192836486056382 0.3562350748565544 0  0.5967108020713719 0.1479294686523888 0  1.28257088594801 0.2944411014911587 0  0.7041890234548132 0.1222025174424443 0  1.474860187679412 0.2504218616229368 0  1.406767003493824 0.2829282258560709 0  0.3201325899091991 0.05890121548989159 0  0.5979220912872258 0.2727591995766724 0  1.845656689180403 0.1998310418452388 0  2.144958525570388 0.2909790873294231 0  2.2 0.15375 0  1.57794966442982 0.3540357145964566 0  0.9483181579620558 0.1214693369582054 0  0.0496154796471391 0.333125 0  1.508991196088596 0.1421783375065625 0  0.09776612425612034 0.2204896805326566 0  1.50436820029908 0.06143401634903343 0  1.223857000523521 0.0823554862453532 0  0.2531953886959507 0.3582003209055908 0  1.153316824384777 0.1289850171317837 0  2.148922302309752 0.1258841779285271 0  1.621993280276081 0.2841214267927899 0  1.550118654119087 0.2461998729100966 0  1.327182649291491 0.1216967252533594 0  1.753125 0.04556020050186112 0  1.271875 0.04556020050186116 0  0.9824282234771738 0.05051969257615314 0  1.039510847866381 0.05683351822678641 0  1.94956388244759 0.1180512551534177 0  1.949997712993411 0.04965831614304109 0  1.771961817615021 0.1530278789497521 0  1.909246823951428 0.2812757146784527 0  1.101974016627944 0.2038045618205013 0  0.7906250000000001 0.0444674049654372 0  1.948575539857022 0.2445328248721197 0  1.697271520964565 0.1233917627620729 0  1.065625 0.3689344961371042 0  1.085849084308977 0.3170853572226867 0  0.9840604787624379 0.3582077516409966 0  1.577403511714593 0.05463601888079143 0  0.05622663515370135 0.05493816910862376 0  0.8762396958822678 0.3392249777398821 0  1.751571320346033 0.3651102912045228 0  1.055327852410105 0.111864799513911 0  0.1583785085108421 0.2994699345738728 0  0.1455283439499995 0.3542795598723423 0  2.2 0.35875 0  0.225705107073232 0.05084786997482401 0  0.1455852234589313 0.1166494778469164 0  1.466879772203159 0.3611261772912453 0  1.990280163552011 0.3564754268533217 0  1.17471064520912 0.2990917256188288 0  0.7221925551074015 0.1739659241003985 0  0 0.25625 0  2.2 0.25625 0  2.2 0.05125 0  0 0.15375 0  1.853978576207987 0.35875 0  0.21965520498276 0.1015543880164422 0  1.515638456102889 0.2882700110184686 0  0.09048297387599738 0.3637717362208066 0  2.150453692751374 0.2387066338105111 0  1.323782677156475 0.04897634338873398 0  1.409375 0.03715320121951221 0  1.406484531114799 0.1087852750766809 0  1.134375 0.03715320121951218 0  1.627401732573545 0.04552157221025036 0  0.446875 0.3713289093361426 0  2.045405893604797 0.1105340662939892 0  1.255408269734577 0.1577307500159216 0  2.028125 0.03707597992059326 0  0.04420832937638274 0.128125 0  0.5817551710628505 0.3702615006034757 0  0.1197849154434487 0.2663398672460083 0  1.248258025468107 0.2565907092181813 0  0.1300647302703173 0.0508462728378621 0  0.7738123537510222 0.2761231499240648 0  1.203125 0.0366132337404304 0  0.5444207041612499 0.111205399508622 0  0.8016457771828226 0.1964238426015905 0  2.072662025974815 0.2975086504196739 0  0.4019040438866802 0.2103993403217561 0  0.4677372330974851 0.04827477407630658 0  0.8677218578847617 0.1432970430140788 0  1.058011122005847 0.2758866204059919 0  0.4429405887974043 0.2746184809910084 0  0.5843750000000001 0.03726989681835222 0  0.6318596133730142 0.1128692182767254 0  0.4862628454464408 0.2957029785303028 0  0.7805186758662764 0.3673578380827891 0  1.887722846421017 0.1760882698830035 0  0.3498893058880703 0.256189258793856 0  1.472640588990488 0.1118278026240017 0  1.865937103925594 0.2604137786483804 0
[...]
<PointData  Scalars="f_43"> 
<DataArray  type="Float64"  Name="f_43"  format="ascii">4.4418889245528625e-01  4.7467458902558335e-01  6.8419423270275797e-10  9.3896387637152732e-10  -3.4002382061192910e-01  -3.0397744718723296e-01  -3.2695659265276933e-01  -4.9446144424370231e-01  -9.1173225385911882e-01  8.8420515944309996e-01  2.0180731992266692e+00  4.2169338838125531e-01  -1.1367692409890569e+00  -4.8703217519551495e-01  -2.5793357595431488e-01  -2.3359865780983316e-01  -2.6871772091392376e-01  -4.3727891301082883e-01  -1.0903575554199151e-01  -8.7419888154379871e-02  -2.7115035551418132e-01  -1.1899042690170721e-01  -5.0909522404075910e-02  -4.9985550513574178e-01  9.7708602997752803e-03  7.8629023458136271e-01  6.3949450436193980e-03  -1.8046980002952101e-01  -1.7697099289263996e-01  2.1748986115483326e-02  4.2448447623927764e-02  3.3861388087457742e-02  3.1739425705420564e-02  3.7612928525563798e-02  2.6512076337697407e-02  1.9292606181588567e-02  2.2298006763609917e-02  -6.6624197082727044e-02  -6.8307368781766742e-02  3.5363645242564537e-02  2.4602964377964841e-02  3.3123185627210783e-02  3.1556867869583907e-02  6.1207763799728164e-10  -3.9421273005588599e-02  1.7291194570921684e-02  1.0166067726119752e-02  -1.2950923141497844e-01  1.3253884093644945e-02  2.5856749029426997e-10  -1.2843910419321791e-01  2.4142414218068210e-02  3.7581021668804809e-02  3.3239518952406129e-02  2.8560479647461910e-02  3.5903916398071646e-02  -1.5815813019084211e-02  -2.6579016188368172e-02  -1.7171130631823128e-01  3.9140025044760307e-01  3.6897263697745220e-01  -1.5528736622664310e-01  2.3527331580291352e-02  2.3332434165449743e-02  2.7064065634640821e-02  3.0904631901257227e-02  2.5295664486067175e-02  3.1426214516075690e-02  2.7088507378555386e-02  -2.3421441468683304e-01  2.1656209263303982e-02  8.5084129573543797e-03  2.2206324232761296e-02  -1.2140109952776217e-02  -1.2707545824474486e-02  -2.7408228976003202e-01  5.4077396205478578e-01  5.7461669224793144e-01  -1.6963359649157583e-01  -8.0992188322023345e-02  -1.7984105344210843e-01  9.4415910750092272e-03  9.4165615174292058e-03  1.4103794421553083e-02  3.0944128414237947e-02  3.8100244046523256e-02  -5.8714784452937110e-03  -8.3716617713328112e-02  2.1319414963893904e-02  3.0505905718128536e-02  2.9464409647070772e-02  -9.6108612188101215e-10  2.9623405236995030e-02  3.1114942984969592e-02  3.7102955676491862e-02  1.5139646972478396e-02  -3.3295999556491540e-01  -1.9799012263793747e-01  2.3757600934337583e-02  2.2056167348038606e-02  4.8424116507845955e-01  2.3986349328821311e-02  3.0216172407712717e-02  1.7267037262651480e-01  3.1094789254019397e-02  -1.7796859708164825e-01  -1.9338741483071040e-01  5.1320307265119958e-01  -3.1108831033066263e-03  5.4370036590581520e-03  7.8133773644647794e-03  2.6933411348255946e-02  2.1914109351840527e-01  3.5502933416644546e-02  -1.8600251356401115e-01  -1.9157999382982546e-01  2.6266422899686354e-02  -2.0245015381581599e-01  2.8015367905519329e-02  -1.2764448781101942e-01  2.0617499506451874e-02  1.5897626472162446e-02  -1.4146894822898384e-01  -4.3664252031250406e-02  -2.0062654991186790e-01  2.3578743273423813e-01  9.1877355135374850e-01  7.4131729478431418e-01  -1.5787996135201127e-01  3.6159333321178350e-02  3.8346262962120292e-02  3.2668151475460802e-02  3.0383294819970617e-02  3.1127122803878485e-02  1.1906301693829689e-02  3.4158699070214092e-02  3.1654457056135683e-02  -1.6559601578042127e-01  2.5151839433616298e-02  3.1462349081819718e-02  1.4580313170890673e-03  4.3202665097970677e-01  4.5636052840612212e-01  3.7585458294172244e-02  3.5983754462993130e-02  -2.3114184278649405e-02  2.6869436034398557e-02  2.4237284441695730e-02  3.6619652287980316e-02  3.0277044364587530e-02  2.3166666462843676e-02  6.4657126325782417e-03  -9.6229173885385058e-02  -9.7665493225287781e-02  -4.0578110076502048e-02  -1.1597146296703417e-01  -8.6100669221086987e-02  2.1885891058693424e-01  4.6035153932274425e-01  1.5373870202530171e-02  -1.0656666248224440e-02  -1.5774842860021560e-01  3.1326340946964897e-02  1.4493738060778437e-02  1.8987275639820368e-02  -3.1734303249506651e-01  2.5613829551723956e-02  1.5380364394581840e-02  2.9291006296774769e-02  -1.9146628997690754e-01  -2.2227256793589292e-01  -1.3407154532205806e-01  3.0782627339275177e-02  5.2237326969272998e-03  3.1745612446799229e-02  2.9063965861659557e-02  2.6568612650317881e-02  5.9834210181883268e-03  1.1309028700426053e-02  1.2787910262425218e-02  1.7830591053838496e-02  2.1460898455067469e-02  9.7200364514060406e-03  -3.1732862888298123e-02  2.8117263890282691e-02  -3.3185300117010208e-01  -5.8310055166645752e-02  2.5967733667917579e-02  3.2997057477531042e-03  -9.0882949203700103e-02  3.0378332156125960e-02  -1.4604408824295836e-01  -6.2984407623374067e-02  2.6207938829380797e-02  -1.2442449758026139e-01  -1.5933703306857452e-01  3.0216335096643180e-02  -3.2876604811243298e-01  -3.4844896224232386e-01  1.6120410530082011e-02  3.6433930686453474e-02  3.1036901785912615e-02  3.2930481223056932e-02  -2.5132316242230446e-02  2.2717176400835950e-02  2.2595212146243961e-02  3.4038363534510729e-02  2.2866189929259699e-02  4.8760449599472877e-01  -5.4516873985181027e-02  -1.6754361823416647e-01  1.4265860882102320e-02  -3.7938324067396029e-02  -1.1022161680179113e-01  2.5014531627286465e-02  -2.3130183327621323e-01  2.8912909700215088e-02  -1.1776849736618974e-01  3.4895345323655444e-02  2.8424549216646226e-02  -1.1089856267019048e-01  -2.2945257051952042e-01  2.3409722815127806e-02  5.0981680372663690e-03  -1.2495939667729961e-09  3.8394212727054400e-02  1.3165007700445567e-02  4.7977343634425734e-01  3.3027569143668750e-02  1.1384034461630452e+00  3.3151121554718409e-02  2.1163436081315254e-02  5.2461438529977880e-02  2.0890052591367947e-02  4.5087967280129084e-03  3.6006481328672339e-02  3.8059950190666547e-02  3.5499751196858317e-02  3.0375910184171167e-02  2.7891027298607332e-02  -7.6781915066182318e-03  5.0919159487860782e-03  1.7222584936592573e-02  1.7345676174426110e-02  2.9571271910667246e-02  2.2366701106107920e-02  3.1252773642790846e-02  -7.9534498554732894e-02  2.1362558123235967e-02  3.1245778742207065e-02  -2.3881828134053851e-03  8.2020697829166597e-03  -2.0422687560743162e-02  3.0784269593138749e-02  4.8077689347657049e-01  -4.0057924220924475e-02  2.5210020705801268e-02  1.6807834727829589e-02  2.5194034648697905e-01  3.4335229254272376e-01  -4.9390936636693016e-09  1.2088457048941274e-01  3.5920706015424886e-01  3.1690334945129933e-02  1.9479366460036132e-02  2.6950025387790458e-02  -9.0329432106228319e-02  6.9200606398083442e-01  2.5856749029426997e-10  6.5687832543569277e-11  7.1822041986676799e-01  2.2812223672255817e-02  -1.1818068737388894e-01  3.6401469947683160e-02  4.2338370403498771e-01  3.1932167777603327e-03  3.4754507606162492e-02  3.8043928247796080e-02  3.7970785945296397e-02  1.2254732991639421e-02  3.1185057733812881e-02  -1.7118844293679700e-01  1.1003762451436132e-02  3.0626671527929417e-02  1.2209446198411782e-02  6.6144425445841382e-01  -1.7019715609406461e-01  6.8768831512423023e-01  3.0742540648259768e-02  3.9695554464585137e-01  -4.4075968232303545e-02  1.8374591941807975e-02  -2.5565562351199544e-01  -4.3589685167875591e-04  1.2778610942689096e-02  -3.1132014444518041e-01  -1.8384050978230879e-01  1.3312203649510180e-02  1.7807408509290683e-02  -1.9324689446108215e-01  -1.7099372904893237e-01  -1.8599839571193277e-01  -2.0214246053338855e-01  -8.2156490912888791e-02  2.2346210392913800e-02  -3.3696395186554529e-01  3.5265706902820403e-02  2.2632184058403094e-02  2.9116423202708675e-02  3.4590682658760752e-02  -1.0884210794292624e-01  2.5365870828469885e-02  -1.1219552428540991e-01  -1.5347215368658332e-01  -1.0411442296935546e-01  3.2107993269395611e-02  -2.0325197713533158e-01  -1.7690193570119789e-01  2.7252162074814807e-02  -2.6933032299009058e-01  -2.1814995641458934e-01  2.3225395281770853e-02  7.3557380470024121e-03  3.4867538556568822e-02  -2.9067103051178638e-02  1.6359436726318288e-02  -3.2450234837854020e-01  -3.3617168800299985e-01  3.0563018193963960e-02  -3.3880816234438732e-01  9.2619827865307081e-01  2.2183144002513047e-02  8.6141886816942548e-01  1.9386854740362912e-02  1.8593802985890747e-02  -1.6075833660578565e-02  3.2611692367656249e-03  9.9060750519840268e-03  1.2173727994611179e-02  -7.4093717530528827e-03  1.9856286643150697e-02  3.6280567672596152e-02  -1.3837247563418373e-01  -2.6728005226768403e-01  2.8518248630559344e-02  -5.4315729941542192e-02  1.8433925828084202e-02  2.8423801257148204e-02  2.7302784126731091e-02  3.4992317325407717e-02  3.1362644395712957e-02  -1.8037778998643295e-01  -1.7671362018642089e-01  3.7404203767900317e-02  3.1796083171483948e-02  3.1625352526128150e-02  3.2980313738778036e-03  3.6400693024465120e-03  4.4169616521627608e-01  -2.8090628135197304e-01  -1.6501857889487066e-02  3.4969867559656344e-02  2.8102798070131909e-02  2.3773660778270835e-02  -6.1647838671122189e-02  3.1995205208781845e-02  2.1711989885108304e-02  -3.8641312357950132e-02  3.0333843381717608e-02  2.3428855383786022e-02  2.5916255506272454e-02  3.1519870804051026e-01  3.2832497662918313e-02  -1.8587343522572466e-01  -1.8368194131666815e-01  7.9920324618276313e-03  3.0395189898975394e-01  1.0622347794458566e-02  -1.2497868913839952e-02  3.4986284785050885e-02  -2.2801639028603177e-01  2.7610686923299751e-02  8.6469025624668801e-03  3.5467106343182973e-02  3.7399540095632434e-02  -2.4690630938341548e-01  -1.4416232383821820e-01  2.9463347163223498e-02  1.5314407115031375e-02  3.3522770063775957e-02  2.6037714396059380e-02  3.5925849546837620e-02  3.8650847160033907e-03  4.3634899175629432e-01  2.6876333151687574e-02  -1.2913142595761132e-01  -1.8932624473397563e-01  -1.0554791469388831e-01  1.4629246695516405e-02  -3.1730323431076912e-01  2.2974792115594587e-02  -5.4358357570588059e-02  2.4188049783734077e-02  2.1796652677342921e-02  1.8933255129312113e-02  -8.3098949700177414e-03  3.3064776573003204e-02  3.1519676495554851e-02  3.1705820382755552e-02  3.1035837109088714e-02  4.7199762440121357e-01  4.4454174143793379e-01  1.5712362519451899e-02  3.7410210485806027e-02  -5.5146731059983849e-02  -5.3486354479470012e-02  2.9381232087993762e-03  9.2273787345764566e-03  5.7661853980217104e-01  -2.1737639844533885e-01  7.1307513668796674e-01  -1.5605863690218930e-01  2.9353155725265277e-02  -7.7779608995026880e-02  -1.9885783957742601e-02  -2.3745039343255328e-01  3.4722234058813702e-02  7.8242228281256332e-01  -1.6565591223089093e-01  1.1786475850737057e-02  3.1758181144989649e-02  2.7418529961941790e-01  3.7133653603224202e-02  6.1709207145791978e-01  3.2254515069119943e-02  -1.0770035828543084e-01  2.7113193727628201e-02  3.1650530044200903e-02  3.0716162358620919e-02  3.3174341379961184e-02  3.7561010737886653e-02  3.7397079385231485e-02  1.7382736867171750e-02  3.1065661558056002e-02  3.6502922847484826e-02  -1.7590674550438851e-01  1.5115285851847217e-02  -1.9604246870572847e-01  -1.4490200004164697e-01  1.9660299142872741e-02  2.7273352972897829e-02  5.4891475738284379e-01  3.7938483227329421e-02  3.2756176552951662e-02  2.5329462680435322e-01  4.5554371135363142e-01  -1.8743329898681268e-02  5.1795837112052134e-01  3.5797017712569892e-02  -4.8675479325821620e-02  3.1175015049315278e-02  -1.8539559272320055e-01  3.6823455709767756e-02  2.6525059831345180e-02  -1.5612618042736703e-01  -4.1701085225025358e-02  1.3287602384726606e-02  1.6327889170704331e-02  3.3611909390118648e-02  9.0517386784658010e-03  -2.9071175467621002e-02  6.9855347644893675e-03  2.4609364737643814e-03  2.3480927368424911e-02  3.1309021772496948e-02  -3.2344878538997768e-01  3.8572504212156036e-02  6.4957293662710825e-03  2.9388989880489913e-03  6.5165613301260781e-03  1.8947906114449631e-02  8.7670417351360282e-03  3.3160806314698907e-02  2.4511070814430484e-02  2.7531160299310083e-02  1.5866188905460259e-02  -1.8387487463628346e-01  -1.7817041278715501e-01  1.1730455140422093e-01  -6.0607920252739748e-02  -9.5717691432672170e-02  -1.8053622961526636e-01  -1.5629658785293493e-01  1.3828942823740284e+00  -1.6160519267786736e-03  1.7595302500721502e-01  1.9598328417915700e-02  1.4182282766813201e-02  2.6801703951895840e-02  2.6375870942284402e-02  2.5767504650293097e-02  2.0455506784655648e-02  3.5591086396901749e-02  6.8249250128276208e-03  2.4802486948989108e-02  -3.0636568662170310e-01  -1.8229532494436976e-01  2.4927082408099484e-02  -3.1940969924934415e-01  -2.4607128893191768e-01  2.3051687331266862e-02  -2.7165673672673035e-01  -3.3244717883548319e-01  2.6560210019608496e-02  3.0895958684431638e-02  1.4223238881716196e-02  1.2249761703807326e-02  2.0951730116949861e-02  2.7501834396336588e-02  -2.0534809096981002e-01  1.0312311491339597e-02  2.0578382336419346e-02  3.3863472276108607e-02  1.4894334750930929e-02  3.5876531474351964e-02  2.7994580845979713e-03  7.8985447882540735e-03  3.7725193953692282e-02  3.3227734088961722e-02  2.5622376820906925e-02  -2.1846291637748912e-03  3.0230061746448402e-02  -1.1310891407609754e-01  -2.7563792759165019e-02  -3.4589960577671296e-02  2.7899330047387379e-02  1.2524975511895423e-02  3.1480641261674631e-03  6.5054669500328524e-03  -1.7010626242510196e-01  -1.5033436229300892e-01  -1.2708431969236683e-01  4.0902201527907422e-01  1.3015911378105352e-01  -8.0753781460307386e-02  -1.7221266870767998e-01  -1.6984521501909827e-01  -8.2701404498053438e-02  -3.2888380783663011e-02  -9.6669697773389338e-02  -1.3899532052942171e-01  -1.4405170707330991e-01  1.9061684353157679e-02  3.1491876402112262e-02  1.6807964127710125e-02  2.8324806899520098e-02  1.2304172718165658e-02  2.0971716292697118e-02  -6.0337927082889783e-03  2.7883829855203206e-02  -1.3451176591283223e-01  1.2960545064087043e-02  2.6714129102892756e-02  3.5002675990107451e-02  3.2997737874258901e-02  3.6824248182291956e-02  2.4599735479182167e-02  -6.8883146844346058e-02  -3.7546542103407562e-02  -2.9823195985594098e-01  -3.1903496206692661e-01  -1.3324559551195789e-01  2.0766999324966947e-02  2.7512417085092115e-02  2.7844953716769632e-02  2.5563572689468694e-02  4.1176646244460530e-01  2.3095138762501875e-02  3.7650360448060284e-02  3.4241029218977696e-02  -8.3646473285311163e-02  2.0513576942521830e-02  3.0698386599573646e-01  2.8850709652144941e-02  2.8465200977666298e-02  2.8815572859951694e-02  2.2594096818455429e-02  2.4399864197927078e-02  -1.2052099838905829e-01  2.9238303621077096e-02  -4.8917301045519036e-02  2.6440905331066557e-02  3.2082054054204202e-02  3.1208080070036948e-02  -1.4500819252191238e-01  2.2400420060903280e-02  3.4441917371150779e-02  7.5643230405501349e-01  -1.7131863866825203e-01  9.7426277365677827e-03  3.1147100113229798e-02  -2.4667993168915234e-01  -5.1124264273103938e-02  1.0192568319038366e-02  8.6579082641277481e-03  3.5820200690640312e-02  8.2008918186922375e-01  2.9078437023544828e-02  3.2064224454949990e-02  2.0365999404354431e-02  1.9909082610772830e-02  3.8729255347443109e-01  1.1339981798533690e-02  3.4818097528045872e-01  -2.7889558951975420e-02  1.5756778011125822e-02  -3.3516974213449535e-01  -3.4374785076046421e-01  2.3384522249366088e-02  -3.3563905776933761e-01  -1.6130214925937820e-02  2.2241061766335092e-02  2.9762806367189934e-02  2.2168160985157906e-02  1.6423612104894174e-02  1.4696828912386538e-02  2.3551077135517966e-03  1.7468691276409140e-02  -8.6473867119416410e-03  3.0711656101997244e-02  -1.7700960955109368e-01  3.0372771477403800e-02  3.1068032986934859e-02  2.2687233966367130e-02  -6.7428033768156953e-02  -1.0351080806944733e-01  -7.6793809869361365e-02  -5.0147835327332038e-02  3.6339691909697255e-02  3.7784538366934420e-02  -2.4251026056463290e-01  -1.5223043646514683e-01  -1.7765048274239012e-01  3.7401960192683811e-02  6.0129337597263355e-01  3.2910449738512669e-02  1.3983548618975550e-02  -8.8925299566853341e-02  3.6623240972211611e-02  -2.1643678702810823e-01  2.2974590079578239e-02  -3.2625461017563856e-01  1.9755051636215343e-02  -1.3096017670714938e-01  -1.6024572913978347e-01  -1.8997944787199308e-01  2.2181725189723660e-02  2.8443638292359682e-02  3.1443787583059879e-02  2.2470709955860833e-02  2.7466477589868424e-02  -8.1608050613304964e-02  1.1418031021353363e+00  2.5076391023937151e-02  -1.4579148339990545e-03  -3.0015895919339347e-01  3.1768297122570080e-02  3.0558475036718723e-02  3.0822577784213191e-02  3.5203243972340259e-02  2.2961512505243892e-02  2.2378982592171418e-02  9.0168102984329191e-03  3.3820364163460029e-02  2.0246616323151688e-02  -2.1289242450879882e-02  -3.6786131227700671e-02  4.7507600833501812e-01  4.7333504670834259e-01  3.1675689979537472e-02  -2.5656842292231175e-01  2.1396857337959641e-02  5.6832127539875920e-03  2.5067998362667768e-02  2.1202706423541955e-03  2.8048420999432857e-02  2.9792318837605903e-02  6.2179228136209230e-01  -2.9078278207908391e-02  3.8214350205620841e-02  8.9562171475931512e-02  2.6332823842332997e-01  -1.0304311528713103e-01  1.5040231244162363e-02  2.5991829727612010e-02  -2.2950451255931661e-01  -2.0774825867993560e-01  -3.2915354376600275e-01  2.5633274535056611e-02  2.3096556476430257e-02  -2.4645162796465878e-01  4.5773621239114137e-01  7.6993933635722311e-01  7.8146286895630756e-03  -1.2683077397323905e-01  2.6253299005914377e-02  3.3128405623134773e-02  3.0812711168958007e-02  2.2461022349408236e-02  6.1207763799728164e-10  -1.8978428749114379e-01  3.3828423749193065e-02  2.9237131634600225e-03  -1.9674558633326103e-01  -1.9014531063533621e-01  1.3376445288615231e-02  -1.2276586249960468e-01  4.0860986842441555e-01  3.9347636868408331e-01  2.2612932163811952e-02  3.0101129009799082e-02  3.3057894013982174e-02  3.3547778919086682e-02  3.5858711667427462e-02  3.6952459276959587e-02  2.2672086684539600e-02  -1.6211926163756640e-01  2.7447000689122938e-02  3.0578524290209106e-02  5.0614612114197668e-03  -1.0311604387979647e-03  -6.5770442102758314e-02  -2.0405464652466657e-01  2.2343703033715131e-02  -1.0815234081599492e-01  6.2565596482828223e-02  -9.6108612188101215e-10  2.9955615072051519e-02  2.9006144905190000e-02  2.7493468311443958e-02  -1.3275305007954646e-01  3.1320678425568731e-02  1.0685971243992570e-02  1.3009599852031324e-02  2.5802026245262091e-02  1.4348763769152615e-02  1.9760782888210357e-03  1.8011042315439662e-02  9.6268741617666909e-03  1.0688418656832850e-02  1.0681969490362602e-03  3.4598433335796500e-02  3.5388778782876357e-02  -1.7696442885748346e-02  4.1265706044030642e-01  4.3702777046342326e-03  2.4594066723863960e-02  -4.4565118445145775e-02  5.9734907646373557e-03  6.0190821044121684e-03  2.5598888694452889e-03  -1.8800226955596805e-01  2.2431546024520788e-02  1.9897101029173785e-02  3.4653817356609135e-02  -2.0780216702118609e-01  3.1700128256421371e-02  3.0842914615160939e-02  2.9274433777298423e-02  -1.7309687610734673e-01  -1.8557301467817208e-01  3.0527383110950355e-02  -2.0153688307713841e-01  -2.3286362478648048e-01  -2.2504319075317961e-01  2.2393647708930067e-02  1.7738567610764922e-02  3.3519697066637634e-02  -4.0403131717559676e-01  2.8034117127940395e-02  -1.1876143248668415e-01  3.0039430738023624e-02  3.3909685583505750e-01  -2.1210724670917291e-02  1.2462652780107948e-02  -9.6439828065102678e-02  6.1207763799728164e-10  1.0967405309817382e+00  8.9735031893925732e-01  -1.4054500570248219e-02  -3.5692095986941792e-02  -1.1826202739866488e-01  3.8631953087545148e-02  3.7468955142637400e-02  -1.0769251090648993e-01  1.9753985346516605e-02  -1.6691942393952627e-01  5.4145593287288285e-01  4.8694848393210483e-01  4.9148985665023320e-01  1.7675279312989248e-02  1.0244804915750595e-02  3.7206154322381814e-02  3.7783435672759665e-02  3.7448132106506056e-02  2.5536215982621180e-02  5.4755830365808822e-01  1.7715428980996217e-02  -3.5836929424045588e-01  3.0467124986359635e-02  2.4336943390456861e-02  2.3677016174608861e-02  1.9344836974026568e-02  1.8480195033410328e-02  -1.7700923248422606e-01  2.6699846223204534e-02  -1.8673509394287155e-01  2.9976916207566411e-02  2.33127656270105