<?xml version="1.0"?>
<VTKFile type="UnstructuredGrid"  version="0.1"  >
<UnstructuredGrid>
<Piece  NumberOfPoints="2426" NumberOfCells="4534">
<Points>
<DataArray  type="Float64"  NumberOfComponents="3"  format="ascii">0 0.41 0  0 0 0  2.2 0 0  2.2 0.41 0  0.2404508497187474 0.2293892626146237 0  0.25 0.2 0  0.2404508497187474 0.1706107373853764 0  0.2154508497187474 0.1524471741852423 0  0.1845491502812526 0.1524471741852423 0  0.1595491502812526 0.1706107373853764 0  0.15 0.2 0  0.1595491502812526 0.2293892626146237 0  0.1845491502812527 0.2475528258147577 0  0.2154508497187474 0.2475528258147577 0  0.5404508497187474 0.2293892626146237 0  0.55 0.2 0  0.5404508497187474 0.1706107373853764 0  0.5154508497187473 0.1524471741852423 0  0.4845491502812526 0.1524471741852423 0  0.4595491502812526 0.1706107373853764 0  0.45 0.2 0  0.4595491502812526 0.2293892626146237 0  0.4845491502812526 0.2475528258147577 0  0.5154508497187473 0.2475528258147577 0  1.1 0 0  0 0.205 0  1.1 0.41 0  0.55 0 0  0.55 0.41 0  0.275 0 0  0.275 0.41 0  1.65 0.41 0  1.65 0 0  1.375 0 0  1.375 0.41 0  1.925 0 0  1.925 0.41 0  0.8250000000000001 0.41 0  0.8250000000000001 0 0  1.5125 0.205 0  1.7875 0.205 0  0.9625000000000001 0.205 0  1.2375 0.205 0  2.2 0.205 0  0.7560964076246335 0.2151713709677419 0  1.99375 0.2152743902439024 0  2.0625 0 0  0.6875 0 0  2.0625 0.41 0  2.2 0.3075 0  0.6875 0.41 0  1.7875 0.41 0  1.375 0.1486128048780488 0  1.5125 0 0  1.7875 0 0  1.5125 0.41 0  0.9625000000000001 0 0  0.9625000000000001 0.41 0  0.4125 0 0  0.1375 0 0  0.1375 0.41 0  0.4125 0.41 0  1.2375 0 0  1.1 0.1486128048780487 0  1.2375 0.41 0  1.65 0.1486128048780487 0  1.126715909090909 0.2793064024390244 0  1.676715909090909 0.2793064024390244 0  1.348284090909091 0.2793064024390244 0  0.34375 0.3032389320646208 0  1.894702181800738 0.1282910975492754 0  2.092797818199262 0.1282910975492754 0  1.85625 0.3075 0  0.8630851210521902 0.286932093388664 0  0.89375 0.1025 0  0.35 0.1090282786671641 0  0 0.3075 0  0 0.1025 0  0.6526217841291382 0.288229645480046 0  0.7562500000000001 0.09660248895515888 0  0.6568633732316684 0.1557582854763441 0  2.099172119769978 0.25625 0  1.002356446954348 0.1010393851523063 0  1.99375 0.08395950269330846 0  1.459960956013612 0.3075 0  1.569025960719943 0.2986889805672169 0  1.03125 0.3278689922742084 0  0.75625 0.3247156761655783 0  1.959375 0.3126371951219512 0  1.749222215368287 0.1025 0  1.275777784631713 0.1025 0  2.2 0.1025 0  1.225938124459196 0.3075 0  1.550777784631713 0.1025 0  1.44375 0.07430640243902442 0  1.16875 0.07430640243902437 0  0.3528655045338512 0.2063263890916129 0  0.5890337614812103 0.08775733857679162 0  0.8504912436891263 0.190072835691683 0  1.899250267340833 0.2229966846119207 0  0.1020898364287272 0.3140258291809757 0  1.766482954545455 0.2934032012195123 0  1.051658316544432 0.2265720188842194 0  0.2 0.3400647632937836 0  1.421109702350723 0.2261157654379721 0  0.4812500000000001 0.41 0  0.4324401666997539 0.3216425986889796 0  0.098916018031319 0.09171660955420841 0  0.9508742791313441 0.2921736960864468 0  2.13125 0 0  2.118919042110979 0.3422084711244843 0  1.30625 0.41 0  0.20625 0 0  1.597888256393107 0.2173787389261347 0  0.4812500000000001 0 0  0.4324082967851086 0.08384041677422771 0  1.829299675393195 0.07400700849299596 0  0.568219932524165 0.3212274660843853 0  1.71875 0.41 0  0.268005226542646 0.08512186835670006 0  1.16875 0.41 0  2.038220665644273 0.332420740103091 0  0.6678017527842831 0.07701763866051195 0  0.89375 0.41 0  0.5111435174287687 0.07335351331957608 0  0.176193934632343 0.0734896648625108 0  0.07390688010811153 0.1697064032433452 0  0.05452951551825875 0.25625 0  0.61875 0.41 0  1.452769549894695 0.1548122580621249 0  1.369219062229598 0.07430640243902442 0  1.30625 0 0  1.720943423819132 0.1714577452753128 0  1.157188124459196 0.205 0  1.094219062229598 0.07430640243902437 0  1.304056576180868 0.1714577452753128 0  1.67579304192913 0.07430640243902437 0  0.2672907219039591 0.3037570723459566 0  1.209670467133757 0.1362100266964769 0  1.58125 0 0  1.03125 0 0  0.06875000000000001 0.41 0  0 0.35875 0  1.58125 0.41 0  1.631724228912893 0.3381867502687533 0  0.8240147050827157 0.1225233169495944 0  1.825608881788174 0.14499488549201 0  1.85625 0 0  1.44375 0 0  1.44375 0.41 0  1.85625 0.41 0  2.13125 0.41 0  0.7562500000000001 0.41 0  0.7562500000000001 0 0  0.89375 0 0  0.34375 0 0  0.34375 0.41 0  0.20625 0.41 0  0.06875000000000001 0 0  1.16875 0 0  1.03125 0.41 0  0.61875 0 0  1.71875 0 0  1.99375 0 0  1.99375 0.41 0  0.3972301426712326 0.2593842555611471 0  1.340625 0.3489494290853124 0  1.134375 0.3489494290853123 0  1.700180620188976 0.3438659752031281 0  0.5003922072260507 0.341765274319271 0  0.6212513815748759 0.2209216137134851 0  0.6885607720119526 0.215393731583638 0  1.033412357328477 0.1612902025713047 0  2.135782184673599 0.07126652247502523 0  1.668441847249787 0.2129203728327609 0  1.295782514339747 0.2378437748815763 0  1.409375 0.3520314716057996 0  2.129248544730567 0.1906135162504124 0  2.060771381434487 0.1989445750470348 0  2.013252586573865 0.1496169464686054 0  1.942766402200229 0.1734448904596831 0  1.895522487186454 0.06076163953489683 0  2.069553871656643 0.06605731020975725 0  0.9281250000000001 0.3539050257418612 0  1.274680914880868 0.3520219391081363 0  0.3030138498135347 0.2488370856812789 0  0.8223773249563684 0.341761430177996 0  0.9018164060227267 0.2326477848736739 0  0.8143027982392851 0.2440265179987191 0  0.7225087161029304 0.2699907246386231 0  1.614713220494657 0.09473434380863296 0  0.378125 0.3566194660323104 0  0.309375 0.3566194660323104 0  1.72990325744076 0.2380068107952482 0  0.6915936999299305 0.3429472631234433 0  0.6268087624932918 0.3466455500035671 0  1.356580098625191 0.2120393231351682 0  0.3060160055995138 0.1590148921620778 0  0.3954648733249218 0.156380553890791 0  2.034370752044885 0.2668681600792073 0  1.51768709249349 0.3426260931494756 0  1.561883724969884 0.1650446847858835 0  1.197344062229598 0.2523725417393646 0  0.9281250000000001 0.05124999999999999 0  1.804085235518364 0.3468178408964637 0  1.817887819205233 0.2589243285818559 0  0.9107805776841645 0.1653834539923287 0  1.905897727272727 0.3485060975609756 0  0 0.05125 0  0.844212276491354 0.0614201194265309 0  0.378125 0.05244637078450034 0  1.008571329007178 0.2705955969954818 0  0.7724048032149464 0.1559079561351474 0  0.7203054377831548 0.04941826955193545 0  1.192836486056382 0.3562350748565544 0  0.5967108020713719 0.1479294686523888 0  1.28257088594801 0.2944411014911587 0  0.7041890234548132 0.1222025174424443 0  1.474860187679412 0.2504218616229368 0  1.406767003493824 0.2829282258560709 0  0.3201325899091991 0.05890121548989159 0  0.5979220912872258 0.2727591995766724 0  1.845656689180403 0.1998310418452388 0  2.144958525570388 0.2909790873294231 0  2.2 0.15375 0  1.57794966442982 0.3540357145964566 0  0.9483181579620558 0.1214693369582054 0  0.0496154796471391 0.333125 0  1.508991196088596 0.1421783375065625 0  0.09776612425612034 0.2204896805326566 0  1.50436820029908 0.06143401634903343 0  1.223857000523521 0.0823554862453532 0  0.2531953886959507 0.3582003209055908 0  1.153316824384777 0.1289850171317837 0  2.148922302309752 0.1258841779285271 0  1.621993280276081 0.2841214267927899 0  1.550118654119087 0.2461998729100966 0  1.327182649291491 0.1216967252533594 0  1.753125 0.04556020050186112 0  1.271875 0.04556020050186116 0  0.9824282234771738 0.05051969257615314 0  1.039510847866381 0.05683351822678641 0  1.94956388244759 0.1180512551534177 0  1.949997712993411 0.04965831614304109 0  1.771961817615021 0.1530278789497521 0  1.909246823951428 0.2812757146784527 0  1.101974016627944 0.2038045618205013 0  0.7906250000000001 0.0444674049654372 0  1.948575539857022 0.2445328248721197 0  1.697271520964565 0.1233917627620729 0  1.065625 0.3689344961371042 0  1.085849084308977 0.3170853572226867 0  0.9840604787624379 0.3582077516409966 0  1.577403511714593 0.05463601888079143 0  0.05622663515370135 0.05493816910862376 0  0.8762396958822678 0.3392249777398821 0  1.751571320346033 0.3651102912045228 0  1.055327852410105 0.111864799513911 0  0.1583785085108421 0.2994699345738728 0  0.1455283439499995 0.3542795598723423 0  2.2 0.35875 0  0.225705107073232 0.05084786997482401 0  0.1455852234589313 0.1166494778469164 0  1.466879772203159 0.3611261772912453 0  1.990280163552011 0.3564754268533217 0  1.17471064520912 0.2990917256188288 0  0.7221925551074015 0.1739659241003985 0  0 0.25625 0  2.2 0.25625 0  2.2 0.05125 0  0 0.15375 0  1.853978576207987 0.35875 0  0.21965520498276 0.1015543880164422 0  1.515638456102889 0.2882700110184686 0  0.09048297387599738 0.3637717362208066 0  2.150453692751374 0.2387066338105111 0  1.323782677156475 0.04897634338873398 0  1.409375 0.03715320121951221 0  1.406484531114799 0.1087852750766809 0  1.134375 0.03715320121951218 0  1.627401732573545 0.04552157221025036 0  0.446875 0.3713289093361426 0  2.045405893604797 0.1105340662939892 0  1.255408269734577 0.1577307500159216 0  2.028125 0.03707597992059326 0  0.04420832937638274 0.128125 0  0.5817551710628505 0.3702615006034757 0  0.1197849154434487 0.2663398672460083 0  1.248258025468107 0.2565907092181813 0  0.1300647302703173 0.0508462728378621 0  0.7738123537510222 0.2761231499240648 0  1.203125 0.0366132337404304 0  0.5444207041612499 0.111205399508622 0  0.8016457771828226 0.1964238426015905 0  2.072662025974815 0.2975086504196739 0  0.4019040438866802 0.2103993403217561 0  0.4677372330974851 0.04827477407630658 0  0.8677218578847617 0.1432970430140788 0  1.058011122005847 0.2758866204059919 0  0.4429405887974043 0.2746184809910084 0  0.5843750000000001 0.03726989681835222 0  0.6318596133730142 0.1128692182767254 0  0.4862628454464408 0.2957029785303028 0  0.7805186758662764 0.3673578380827891 0  1.887722846421017 0.1760882698830035 0  0.3498893058880703 0.256189258793856 0  1.472640588990488 0.1118278026240017 0  1.865937103925594 0.2604137786483804 0
[...]
<PointData  Scalars="f_43"> 
<DataArray  type="Float64"  Name="f_43"  format="ascii">4.3689573927874137e-01  4.6712103487729784e-01  1.0848991373069826e-09  1.4542346232950005e-09  -3.4733869095176834e-01  -3.1145214052240683e-01  -3.3456392902909238e-01  -5.0206215839505930e-01  -9.1954638783339770e-01  8.7643469349728853e-01  2.0106305372499125e+00  4.1462119229446226e-01  -1.1437537226846115e+00  -4.9434481428514876e-01  -2.6366155931134533e-01  -2.4108971101439480e-01  -2.7834073150722433e-01  -4.4603295002516025e-01  -1.1340380436746961e-01  -9.2022075804357700e-02  -2.7896287547178289e-01  -1.2947789716915573e-01  -6.2377264633932457e-02  -5.0644902465017416e-01  1.2360813330118082e-02  7.7886844701001035e-01  -1.0957512610685661e-02  -1.8691027026814025e-01  -1.8503984854364600e-01  1.4000884310765535e-02  3.5393473954634831e-02  3.2046692700910241e-02  1.9919661012974810e-02  2.5369993368410140e-02  2.4608329039477236e-02  1.6339386738861303e-02  9.0402513155121416e-03  -7.3686389316858808e-02  -7.5061598936159074e-02  2.4153616137473206e-02  1.6124308342463110e-02  2.7255939294257747e-02  2.4995518930178325e-02  2.9859003503764283e-09  -5.2222176883699116e-02  9.6814088048330343e-03  2.6127588208235178e-03  -1.3208333845187817e-01  7.6703826096228764e-03  1.5269104473124701e-09  -1.3961003516019407e-01  1.8241135133644157e-02  2.7894509987134625e-02  3.1174393124704183e-02  2.1106777613297972e-02  2.0331495188335904e-02  -3.3223808116380246e-02  -2.4074176627216275e-02  -1.7946469778008983e-01  3.8383668731377468e-01  3.6169503244224954e-01  -1.6219885784142291e-01  1.3136818903171645e-02  2.6050557693287575e-02  2.0363642428361011e-02  1.7927124857377619e-02  7.1167721310153665e-03  3.1398246453512933e-02  2.6315876067969531e-02  -2.4030383781456363e-01  1.7699239058273766e-02  -1.0943908876598423e-03  7.3831076922894808e-03  -8.2203192499159649e-03  -3.0953828964093020e-02  -2.8304189084867487e-01  5.3346357448404569e-01  5.6708015735322403e-01  -1.8380828746671538e-01  -8.2907351002486598e-02  -1.7748130285591954e-01  6.1803785346565649e-03  -2.4524083351491412e-03  1.1781725922653355e-02  1.6010664547363596e-02  2.6363943135095026e-02  -1.2392504484733075e-02  -9.5670927900705305e-02  9.3096840668724559e-03  2.0402320594737306e-02  1.2806984737973284e-02  -3.0526452702563474e-09  2.1203891528564139e-02  2.8138714533620972e-02  3.3951072525753571e-02  1.8531573923282318e-02  -3.4004562639066088e-01  -2.0372302153773655e-01  1.1001420075832984e-02  5.1788588409001270e-03  4.7694451488591005e-01  2.1781499511937519e-02  1.0619228961861659e-02  1.6543825561871883e-01  1.8568537845727668e-02  -1.8524102820290941e-01  -2.0092620228197530e-01  5.0565074219023365e-01  -1.0784314357476278e-03  -5.5073178879818535e-04  4.7805583483756303e-03  2.8419970199701217e-02  2.1151290782627685e-01  2.8331395855108583e-02  -1.9333394921498040e-01  -1.9872627527505213e-01  2.0470437052407014e-02  -2.1069906665648533e-01  2.7851437762089874e-02  -1.3544654394224442e-01  3.3788735914626854e-03  9.3631893594996948e-03  -1.4336433631839982e-01  -4.3163956065619770e-02  -2.0763724877752812e-01  2.2819796965002223e-01  9.1129150607732212e-01  7.3397055459675364e-01  -1.6732393420363942e-01  3.2100209206375845e-02  2.3976301237149562e-02  1.5909543856676315e-02  1.9354693998320880e-02  2.2540966202010147e-02  1.5992289255004597e-02  1.9362783408067536e-02  1.7747684070621609e-02  -1.7261023620471053e-01  1.5788908478879812e-02  2.4542523103333345e-02  -6.1613365278028985e-03  4.2473246510709572e-01  4.4906609503480782e-01  2.7982347684513395e-02  3.3114397985045403e-02  -3.6970623138324631e-02  1.9533095949508406e-02  1.9520079855747538e-02  3.2430270635756146e-02  1.8567477700298228e-02  1.0388464456962098e-02  4.2213176764136226e-03  -1.0766147192846598e-01  -9.9606941690908071e-02  -5.5995818862696854e-02  -1.2382514306700954e-01  -9.3003151365782577e-02  2.1165724298258637e-01  4.5279984196228801e-01  1.6264195323715286e-02  -1.7180548218943482e-02  -1.6249919064768450e-01  2.0091866631103062e-02  1.0249422015489897e-02  9.8819769924839238e-03  -3.2276388740994783e-01  2.9304892893553629e-02  -6.2384411556374595e-03  3.1255124898676150e-02  -1.9908285967726211e-01  -2.3073643144942266e-01  -1.4841140666454219e-01  2.9822657028725184e-02  -1.9872038965479759e-03  2.4900089313654249e-02  3.0515374916629066e-02  2.0373030472287154e-02  -1.8909046951641978e-03  8.5836100088765755e-04  7.4613889044412383e-03  1.2199296864337428e-02  1.7993561057193290e-02  7.8837489387477368e-04  -2.7263448605271117e-02  2.8252785087053884e-02  -3.3846401614313543e-01  -6.5507965425555467e-02  3.3557455550271655e-02  4.0677814604604063e-03  -1.0849604581239146e-01  2.0711587027714601e-02  -1.5287813821035862e-01  -6.9903248552805539e-02  2.5765380570172275e-02  -1.3649450478351846e-01  -1.6924263460383512e-01  2.5235739751072905e-02  -3.3706408222176520e-01  -3.5770371805436046e-01  1.0084317202177222e-02  1.8572836132345047e-02  2.5968613897490157e-02  2.6945675968310427e-02  -4.4573720645009328e-02  1.5292672063030524e-02  9.7929562165312602e-03  1.3915280938550711e-02  7.1829570729095337e-03  4.8005196970562142e-01  -6.3845480449317579e-02  -1.7544450714570164e-01  3.2150235096047009e-03  -4.2106607143887233e-02  -1.1151797827115340e-01  9.2249072083957391e-03  -2.3900559767835916e-01  2.9655307167357179e-02  -1.1453279449133613e-01  1.8653481301359635e-02  2.0301062021367021e-02  -1.1885194350454491e-01  -2.3777915658485452e-01  8.2516823863239882e-03  4.4416636572842966e-03  -3.0150614600672891e-09  2.7526078970205786e-02  -3.1596877458016184e-03  4.7247467540495952e-01  3.0877770976720439e-02  1.1310238506843178e+00  3.2811340185620132e-02  1.3371096488306615e-02  4.5344384423503421e-02  2.0240233811913089e-02  -1.1270073282794227e-03  3.1735119866272955e-02  2.7316815480852276e-02  1.9674497365997242e-02  2.0814045756883851e-02  1.1745699345909247e-02  -2.4872277868411577e-02  -1.3270284934667311e-03  1.5866347293690641e-02  1.5110687184221918e-02  2.0780333905752235e-02  6.7109196742091391e-03  1.9145557046860929e-02  -8.2401530692568489e-02  1.0129211010619001e-02  1.8603919276035833e-02  -1.5227161089380107e-02  -9.5538195910346221e-03  -1.8055788831791122e-02  2.4730604445254201e-02  4.7322499152845193e-01  -4.0194711028338881e-02  2.3966994393162556e-02  1.5131167470570262e-02  2.4468015563619014e-01  3.3607444256601204e-01  -5.1031332768622964e-09  1.1323888350702714e-01  3.5161088566023335e-01  1.6428312929257692e-02  1.0399664089788239e-02  1.0509715410161114e-02  -8.5828720872796790e-02  6.8465267975082977e-01  1.5269104473124701e-09  1.5316355670957211e-09  7.1072860764586199e-01  9.2175801032496323e-03  -1.2581748808343526e-01  2.0304311067176461e-02  4.1609033517280691e-01  1.8919260989048500e-03  1.6248871367088198e-02  3.0133049988884344e-02  2.9719262049391321e-02  1.7173607136680785e-02  2.0106403050765276e-02  -1.7826777740767624e-01  4.4700335993952366e-03  1.5462964968023235e-02  6.2365621378597854e-03  6.5392285181686161e-01  -1.7873483273800442e-01  6.8039802376886016e-01  3.0431148886387621e-02  3.8939516877317104e-01  -5.2646274700167646e-02  1.4716694917859882e-02  -2.6344472532972957e-01  -7.6895484550741954e-03  7.5757423070994820e-03  -3.1824065912760202e-01  -1.9119882851919234e-01  -8.4077525405914164e-03  6.7927252891841750e-04  -2.0268526089109334e-01  -1.7681851689571010e-01  -1.8799816004847245e-01  -2.1106396690726067e-01  -9.3231320019662542e-02  1.1399840802183137e-02  -3.4186570269079847e-01  3.3142657977793519e-02  6.0174869955488056e-03  2.1603093621127781e-02  2.2328699799486297e-02  -1.1607228139069212e-01  2.5216422859963828e-02  -1.2386175835757941e-01  -1.5782956966298783e-01  -1.1626434282105409e-01  2.2810573922080343e-02  -2.0929268530442113e-01  -1.8300118324180289e-01  2.7923157486761271e-02  -2.7613718398028675e-01  -2.2476075737979523e-01  1.8043823370144471e-02  -8.2071935159513010e-04  2.6481294407777894e-02  -3.1112513888059953e-02  9.1824702579172829e-03  -3.3180793001590514e-01  -3.4384206030659442e-01  2.1144130015185586e-02  -3.4822374024168096e-01  9.1864788120502783e-01  1.3887870146766830e-02  8.5400422343998827e-01  1.1271235396798722e-02  2.7539287854716855e-02  -1.1924883759138506e-02  3.2587550287889338e-03  5.9248430526792906e-03  6.8616529165830059e-03  -7.8248637361016619e-03  1.5618303292363937e-02  3.0963230388721397e-02  -1.4893167265800691e-01  -2.7562321839203563e-01  2.1049004638122065e-02  -5.7549335900904428e-02  1.0888986869172005e-02  2.1023194149188108e-02  2.0662925587161863e-02  3.2851100349886600e-02  2.0898705619975585e-02  -1.8818996163551893e-01  -1.8439401815173012e-01  2.3930485916288682e-02  1.9536266015275777e-02  1.9302572806488252e-02  -8.1841288856264102e-04  2.7670215762833680e-03  4.3440238457974961e-01  -2.8944374650460847e-01  -2.4266730421920124e-02  3.1693554762763997e-02  2.1171573247638995e-02  1.8715380018632283e-02  -6.7010447756409935e-02  2.8048580343129893e-02  9.1947091315811788e-03  -5.4429278279895660e-02  9.6363692370292596e-03  1.3743955465763947e-02  2.7135104114729518e-02  3.0761002966833900e-01  3.2553557024846302e-02  -1.9283959154045374e-01  -1.9038351046437152e-01  8.4020011328674715e-03  2.9670271462677550e-01  7.9586605784593757e-04  -1.6942772890024532e-02  2.6500534750197528e-02  -2.3589735388740413e-01  2.0147113811486941e-02  -2.2487972895973997e-03  3.3735406135291413e-02  3.0639764549180052e-02  -2.5230588131371762e-01  -1.6398900419577722e-01  2.8070790580099026e-02  2.0659141927820226e-02  2.0746467205201923e-02  2.5190749819684301e-02  2.1532499318477737e-02  7.4505725466892388e-06  4.2879539366992719e-01  3.0684691560432444e-02  -1.3172182928172857e-01  -1.9898439246056526e-01  -1.1918658517564122e-01  1.1219464953438724e-02  -3.2463429446682013e-01  8.9612453240668615e-03  -6.5495837986696753e-02  1.9458037099084998e-02  1.8165114750171098e-02  1.6843330705694992e-02  -2.7800452354770092e-02  3.2146484043137954e-02  1.8666399804318033e-02  1.8917553807940628e-02  1.8183607006343694e-02  4.6444478780652787e-01  4.3724816760683904e-01  8.9270860126422404e-03  3.1007644161689774e-02  -5.9615695559876350e-02  -6.1295260890636256e-02  -1.3553911492562113e-02  1.3830371341786680e-02  5.6930688881979075e-01  -2.2301929287844874e-01  7.0554400693460073e-01  -1.6273884498446253e-01  2.1416558703247258e-02  -7.6993609816699768e-02  -1.5264594768528764e-02  -2.4501058925713950e-01  3.0037336282331399e-02  7.7494249848272978e-01  -1.7331285205157437e-01  5.8133842815628264e-03  1.7955743766589583e-02  2.6693775907290102e-01  2.2503398295069591e-02  6.0976485721804785e-01  2.9962631831444576e-02  -1.0802442251642551e-01  2.0179016434507022e-02  2.3731323537412120e-02  2.0196819360198712e-02  1.7171624366022251e-02  2.4753966609670577e-02  2.2659847542297683e-02  1.9752613524473384e-02  1.8132136196976421e-02  2.3675455981729248e-02  -1.8116621004465838e-01  1.2964475063520211e-02  -2.1049921496733701e-01  -1.4862304418697711e-01  1.7239356381893171e-02  1.4380917342493924e-02  5.4137048618593619e-01  3.0626358822634040e-02  3.3411646979636292e-02  2.4569335568956591e-01  4.4799100111234369e-01  -1.9737608197045748e-02  5.1041063691450395e-01  3.1886483327974266e-02  -5.5576846659593004e-02  2.3135962711909614e-02  -1.9254343894809070e-01  2.1229060933274636e-02  2.0618997789885282e-02  -1.5394566931140027e-01  -4.0727270088529360e-02  6.9114426410815709e-03  9.0669911200432652e-03  1.4163352833982571e-02  5.6952203824877142e-03  -4.3120446196313694e-02  6.8277438157026641e-04  -7.4087263284062621e-04  2.1133839218938234e-02  2.8959869969539098e-02  -3.3067997087498757e-01  3.0420514484890009e-02  -1.2405442054707555e-02  -1.0373372507947107e-03  -2.3667322985603556e-03  9.2542227112421445e-03  5.1867933603064785e-03  2.6902230018101384e-02  1.8782098132672866e-02  1.8392807059093057e-02  8.6925210117045591e-03  -1.9142947481943140e-01  -1.8544903333635981e-01  1.0962584176450887e-01  -6.9328858136162200e-02  -9.7130878302802315e-02  -1.8813966268961829e-01  -1.6321673241624302e-01  1.3754287180361067e+00  -1.3150092170820294e-02  1.6875921620944104e-01  4.3385078383378792e-04  -4.7206854317490710e-03  2.9478614186931620e-02  2.7451290751528079e-02  2.5047179376181516e-02  -9.1555660887953922e-04  2.7409347893903799e-02  -1.1677479520477386e-03  1.2388506494101241e-02  -3.1434248342567955e-01  -1.8989265602092009e-01  1.5614736933418286e-02  -3.2704496685509277e-01  -2.5303852075003508e-01  1.2518356700402222e-02  -2.7953364241602174e-01  -3.3795666677678798e-01  2.0073752684970157e-02  3.0840853195881323e-02  9.2231447069082741e-03  4.2367412045692466e-03  9.8115850747237596e-03  2.5807997590009242e-02  -2.1218505114133418e-01  -8.8799895037323488e-03  1.6964226613147353e-03  1.7674875700963332e-02  1.6878818065551297e-02  2.0174626220344709e-02  -3.6350340872405486e-04  3.1983797568625624e-04  2.9885555331715555e-02  1.8163371445208524e-02  2.3323971217500780e-02  -1.4831791942835041e-02  2.0818953499272732e-02  -1.1496930040386993e-01  -4.5285231057665014e-02  -3.1858848396584309e-02  2.0996946764384756e-02  1.6106997372874125e-02  2.3557919330286811e-03  5.0268263321777045e-03  -1.7715043037616676e-01  -1.5817909669574592e-01  -1.3396095041448736e-01  4.0173184578499632e-01  1.2301925298588862e-01  -9.0635106773123628e-02  -1.7796839874911916e-01  -1.7849191167193473e-01  -8.6310525142883843e-02  -3.9855050995721682e-02  -1.0354752611795466e-01  -1.4569625380649714e-01  -1.5437403260298971e-01  1.4617516214599852e-02  2.1697880204003199e-02  1.3686492691903552e-02  1.3318688977741164e-02  6.2826755263035812e-03  9.6683280233391469e-03  -1.9427354334075955e-02  2.8432070651656143e-02  -1.4832539227094479e-01  9.8776617312160767e-03  2.9622266307127099e-02  2.7507478679248427e-02  2.6564891154630031e-02  3.2220376308195103e-02  2.1376345936055634e-02  -7.7366335896355221e-02  -3.9986955457454065e-02  -3.0351912493975658e-01  -3.2478055458383193e-01  -1.2602880103263492e-01  1.6500718881900949e-02  2.7072675564271835e-02  2.8695828228310395e-02  1.3775350312308440e-02  4.0420041376560956e-01  3.2280941432942015e-03  2.1255278264721473e-02  1.6208135582815631e-02  -9.5685822644573940e-02  1.7328699425570044e-02  2.9976492824568773e-01  1.6662724113396709e-02  1.9272710559196583e-02  2.9684531934219230e-02  5.5271516961159671e-03  2.5944745580843840e-02  -1.3204607758844633e-01  2.2391599768923850e-02  -5.5910024396001352e-02  2.0093124523754387e-02  3.1208220258804126e-02  2.5184130657118768e-02  -1.5643241161622920e-01  6.8500853027813552e-03  1.8340586156977527e-02  7.4904682950410517e-01  -1.7537911707357956e-01  1.8122484834398146e-02  2.2817804677306010e-02  -2.5392378061029397e-01  -6.2868242849896880e-02  2.3676502293590784e-03  -1.1546057729202941e-03  2.5687794112566366e-02  8.1275561928752971e-01  2.4094331592593072e-02  2.4037942447681523e-02  7.6163181111929875e-03  1.5409458624117162e-02  3.8000652544980357e-01  6.2597683375447766e-03  3.4060750549458590e-01  -2.4208611439251515e-02  9.6653188850371538e-03  -3.4510085885089387e-01  -3.5218850531549029e-01  1.5762137386332843e-02  -3.4185274682808175e-01  -3.5704308587144705e-02  1.0384959301600920e-02  3.1237145828623539e-02  4.7717107874750949e-03  1.5050256245333498e-02  -5.5320258836269332e-03  3.3921317352263126e-03  1.4845603940188853e-02  -1.7045649051549830e-02  2.5105371187633084e-02  -1.8400146465296149e-01  2.4429776585499358e-02  1.8476737227683861e-02  8.3923079493815281e-03  -7.3513212390882765e-02  -1.2462320001343602e-01  -8.9455173126128967e-02  -6.5503493588033979e-02  2.7424675304241922e-02  2.5671373272166266e-02  -2.5210394139268694e-01  -1.6187509068250189e-01  -1.8656954366195580e-01  2.9396312872676477e-02  5.9373223386963947e-01  2.8006395276397422e-02  6.9431631370209957e-03  -9.6759748235850110e-02  1.9382013858180065e-02  -2.2470991217613870e-01  9.0017884977098700e-03  -3.3554187336531194e-01  2.1951084904088179e-02  -1.3880962335270522e-01  -1.6804931236226184e-01  -1.9772486139878864e-01  8.5191602096885526e-03  1.7078913453456745e-02  2.6328139445894766e-02  1.0127634178534071e-02  1.2682337376163340e-02  -8.3552235469645297e-02  1.1345082100507518e+00  2.3769144764882680e-02  3.7899278229493825e-03  -3.0812848598697706e-01  3.0810494665018298e-02  2.5390026722923054e-02  1.8198076471034257e-02  3.4509125872814246e-02  1.5971674483591089e-02  9.5571794023302636e-03  -1.7287715592256918e-03  3.2332017113863618e-02  9.8911720537122293e-03  -3.9778502891291846e-02  -5.3326699135486516e-02  4.6752216223501403e-01  4.6578148079259185e-01  2.8181176341887722e-02  -2.6320665900428764e-01  1.7720920135849784e-02  2.1793019778870303e-03  6.8428127932603881e-03  -4.9682251018740280e-03  3.0761417122815892e-02  8.6714918665283542e-03  6.1448485277357201e-01  -3.3135186794407599e-02  2.2983857112559115e-02  8.2314125127278356e-02  2.5606340640199077e-01  -1.1025896380912395e-01  1.3592403377761535e-02  2.7754141770825174e-02  -2.3677921997780912e-01  -2.1014578901453115e-01  -3.3742997851807788e-01  1.1132112994241421e-02  1.1622892593277510e-02  -2.5594458790482760e-01  4.5018404549518037e-01  7.6256261329331820e-01  -1.6302690957912308e-03  -1.2638477361291717e-01  2.0546723245474924e-02  3.0611160839914733e-02  1.9559345669519064e-02  6.3466231359169435e-03  2.9859003503764283e-09  -1.9839184400610238e-01  3.2070738549434069e-02  -1.0008828969198212e-03  -2.0455077793595755e-01  -2.0252861274281728e-01  8.6355685503446394e-03  -1.2407741068125670e-01  4.0131933741405451e-01  3.8619190544981519e-01  6.3947201102287667e-03  2.2139405680429363e-02  1.7253976634634606e-02  1.7727275980284757e-02  2.0281259633637409e-02  3.2646051593727771e-02  6.8575458019144485e-03  -1.7016201117705601e-01  2.2780183660587917e-02  1.7871352898220130e-02  -7.8865906780003579e-03  -1.4087053328215193e-02  -7.1138122464038264e-02  -2.1240632229759795e-01  5.2661136808487370e-03  -1.1604638470017556e-01  5.4859383560775042e-02  -3.0526452702563474e-09  2.7243374957152726e-02  3.0112936520281099e-02  2.7341922415106742e-02  -1.3224795996336178e-01  1.9876640155209461e-02  1.5190015063295384e-02  -8.3415455400419041e-03  8.0895871219852401e-03  1.4075745892957814e-03  -1.6536513811828166e-02  9.7661568933017917e-03  2.4766327039980967e-03  9.5436463360597020e-03  -1.2209998713546921e-02  3.2100959635911086e-02  3.3160270422984979e-02  -1.3217058938193391e-02  4.0509962199261168e-01  -3.4154844105205203e-04  2.0899580880616438e-02  -5.4276354517354242e-02  4.2715966246256827e-03  4.9718011994239900e-03  3.0224586377483073e-03  -1.9496837963840552e-01  3.8563191889609389e-03  1.0738623669542643e-02  2.5659045150541373e-02  -2.1288104371466257e-01  1.4125418084183742e-02  2.0334194691968521e-02  2.1042905890007329e-02  -1.7841932376375855e-01  -1.9178290084337982e-01  2.3132651962841529e-02  -2.1342010992737784e-01  -2.4079850612318107e-01  -2.3303028884838620e-01  1.8084557972720003e-02  1.9677300814683052e-02  2.3433060740413465e-02  -4.1165025113826476e-01  1.6785514574136139e-02  -1.2080861358433116e-01  1.1423396107379077e-02  3.3182753922398295e-01  -3.2969601963521521e-02  1.8821091892208458e-02  -9.7448427048044142e-02  2.9859003503764283e-09  1.0892990679220014e+00  8.8997392886223148e-01  -1.5308764999835587e-02  -3.2796367218496131e-02  -1.3436178809381469e-01  2.7130999750030568e-02  3.1036953818130156e-02  -1.2026859114517714e-01  1.6975657155881688e-02  -1.7789190935024493e-01  5.3414685530523565e-01  4.7964885905078242e-01  4.8418980034755865e-01  1.5658245155107477e-02  3.1477943101354071e-03  2.4273745967768712e-02  2.7690369142431087e-02  2.8969363129344214e-02  2.9101166567705655e-02  5.3991107401654659e-01  1.5913488097710347e-02  -3.6567536420936886e-01  1.9401420808703506e-02  1.2564187182887850e-02  1.9596513460438593e-02  1.6791919049542785e-02  1.5694129734917274e-02  -1.8363841183568819e-01  2.7840948749070126e-02  -1.9480869989148783e-01  2.09