<?xml version="1.0"?>
<VTKFile type="UnstructuredGrid"  version="0.1"  >
<UnstructuredGrid>
<Piece  NumberOfPoints="2426" NumberOfCells="4534">
<Points>
<DataArray  type="Float64"  NumberOfComponents="3"  format="ascii">0 0.41 0  0 0 0  2.2 0 0  2.2 0.41 0  0.2404508497187474 0.2293892626146237 0  0.25 0.2 0  0.2404508497187474 0.1706107373853764 0  0.2154508497187474 0.1524471741852423 0  0.1845491502812526 0.1524471741852423 0  0.1595491502812526 0.1706107373853764 0  0.15 0.2 0  0.1595491502812526 0.2293892626146237 0  0.1845491502812527 0.2475528258147577 0  0.2154508497187474 0.2475528258147577 0  0.5404508497187474 0.2293892626146237 0  0.55 0.2 0  0.5404508497187474 0.1706107373853764 0  0.5154508497187473 0.1524471741852423 0  0.4845491502812526 0.1524471741852423 0  0.4595491502812526 0.1706107373853764 0  0.45 0.2 0  0.4595491502812526 0.2293892626146237 0  0.4845491502812526 0.2475528258147577 0  0.5154508497187473 0.2475528258147577 0  1.1 0 0  0 0.205 0  1.1 0.41 0  0.55 0 0  0.55 0.41 0  0.275 0 0  0.275 0.41 0  1.65 0.41 0  1.65 0 0  1.375 0 0  1.375 0.41 0  1.925 0 0  1.925 0.41 0  0.8250000000000001 0.41 0  0.8250000000000001 0 0  1.5125 0.205 0  1.7875 0.205 0  0.9625000000000001 0.205 0  1.2375 0.205 0  2.2 0.205 0  0.7560964076246335 0.2151713709677419 0  1.99375 0.2152743902439024 0  2.0625 0 0  0.6875 0 0  2.0625 0.41 0  2.2 0.3075 0  0.6875 0.41 0  1.7875 0.41 0  1.375 0.1486128048780488 0  1.5125 0 0  1.7875 0 0  1.5125 0.41 0  0.9625000000000001 0 0  0.9625000000000001 0.41 0  0.4125 0 0  0.1375 0 0  0.1375 0.41 0  0.4125 0.41 0  1.2375 0 0  1.1 0.1486128048780487 0  1.2375 0.41 0  1.65 0.1486128048780487 0  1.126715909090909 0.2793064024390244 0  1.676715909090909 0.2793064024390244 0  1.348284090909091 0.2793064024390244 0  0.34375 0.3032389320646208 0  1.894702181800738 0.1282910975492754 0  2.092797818199262 0.1282910975492754 0  1.85625 0.3075 0  0.8630851210521902 0.286932093388664 0  0.89375 0.1025 0  0.35 0.1090282786671641 0  0 0.3075 0  0 0.1025 0  0.6526217841291382 0.288229645480046 0  0.7562500000000001 0.09660248895515888 0  0.6568633732316684 0.1557582854763441 0  2.099172119769978 0.25625 0  1.002356446954348 0.1010393851523063 0  1.99375 0.08395950269330846 0  1.459960956013612 0.3075 0  1.569025960719943 0.2986889805672169 0  1.03125 0.3278689922742084 0  0.75625 0.3247156761655783 0  1.959375 0.3126371951219512 0  1.749222215368287 0.1025 0  1.275777784631713 0.1025 0  2.2 0.1025 0  1.225938124459196 0.3075 0  1.550777784631713 0.1025 0  1.44375 0.07430640243902442 0  1.16875 0.07430640243902437 0  0.3528655045338512 0.2063263890916129 0  0.5890337614812103 0.08775733857679162 0  0.8504912436891263 0.190072835691683 0  1.899250267340833 0.2229966846119207 0  0.1020898364287272 0.3140258291809757 0  1.766482954545455 0.2934032012195123 0  1.051658316544432 0.2265720188842194 0  0.2 0.3400647632937836 0  1.421109702350723 0.2261157654379721 0  0.4812500000000001 0.41 0  0.4324401666997539 0.3216425986889796 0  0.098916018031319 0.09171660955420841 0  0.9508742791313441 0.2921736960864468 0  2.13125 0 0  2.118919042110979 0.3422084711244843 0  1.30625 0.41 0  0.20625 0 0  1.597888256393107 0.2173787389261347 0  0.4812500000000001 0 0  0.4324082967851086 0.08384041677422771 0  1.829299675393195 0.07400700849299596 0  0.568219932524165 0.3212274660843853 0  1.71875 0.41 0  0.268005226542646 0.08512186835670006 0  1.16875 0.41 0  2.038220665644273 0.332420740103091 0  0.6678017527842831 0.07701763866051195 0  0.89375 0.41 0  0.5111435174287687 0.07335351331957608 0  0.176193934632343 0.0734896648625108 0  0.07390688010811153 0.1697064032433452 0  0.05452951551825875 0.25625 0  0.61875 0.41 0  1.452769549894695 0.1548122580621249 0  1.369219062229598 0.07430640243902442 0  1.30625 0 0  1.720943423819132 0.1714577452753128 0  1.157188124459196 0.205 0  1.094219062229598 0.07430640243902437 0  1.304056576180868 0.1714577452753128 0  1.67579304192913 0.07430640243902437 0  0.2672907219039591 0.3037570723459566 0  1.209670467133757 0.1362100266964769 0  1.58125 0 0  1.03125 0 0  0.06875000000000001 0.41 0  0 0.35875 0  1.58125 0.41 0  1.631724228912893 0.3381867502687533 0  0.8240147050827157 0.1225233169495944 0  1.825608881788174 0.14499488549201 0  1.85625 0 0  1.44375 0 0  1.44375 0.41 0  1.85625 0.41 0  2.13125 0.41 0  0.7562500000000001 0.41 0  0.7562500000000001 0 0  0.89375 0 0  0.34375 0 0  0.34375 0.41 0  0.20625 0.41 0  0.06875000000000001 0 0  1.16875 0 0  1.03125 0.41 0  0.61875 0 0  1.71875 0 0  1.99375 0 0  1.99375 0.41 0  0.3972301426712326 0.2593842555611471 0  1.340625 0.3489494290853124 0  1.134375 0.3489494290853123 0  1.700180620188976 0.3438659752031281 0  0.5003922072260507 0.341765274319271 0  0.6212513815748759 0.2209216137134851 0  0.6885607720119526 0.215393731583638 0  1.033412357328477 0.1612902025713047 0  2.135782184673599 0.07126652247502523 0  1.668441847249787 0.2129203728327609 0  1.295782514339747 0.2378437748815763 0  1.409375 0.3520314716057996 0  2.129248544730567 0.1906135162504124 0  2.060771381434487 0.1989445750470348 0  2.013252586573865 0.1496169464686054 0  1.942766402200229 0.1734448904596831 0  1.895522487186454 0.06076163953489683 0  2.069553871656643 0.06605731020975725 0  0.9281250000000001 0.3539050257418612 0  1.274680914880868 0.3520219391081363 0  0.3030138498135347 0.2488370856812789 0  0.8223773249563684 0.341761430177996 0  0.9018164060227267 0.2326477848736739 0  0.8143027982392851 0.2440265179987191 0  0.7225087161029304 0.2699907246386231 0  1.614713220494657 0.09473434380863296 0  0.378125 0.3566194660323104 0  0.309375 0.3566194660323104 0  1.72990325744076 0.2380068107952482 0  0.6915936999299305 0.3429472631234433 0  0.6268087624932918 0.3466455500035671 0  1.356580098625191 0.2120393231351682 0  0.3060160055995138 0.1590148921620778 0  0.3954648733249218 0.156380553890791 0  2.034370752044885 0.2668681600792073 0  1.51768709249349 0.3426260931494756 0  1.561883724969884 0.1650446847858835 0  1.197344062229598 0.2523725417393646 0  0.9281250000000001 0.05124999999999999 0  1.804085235518364 0.3468178408964637 0  1.817887819205233 0.2589243285818559 0  0.9107805776841645 0.1653834539923287 0  1.905897727272727 0.3485060975609756 0  0 0.05125 0  0.844212276491354 0.0614201194265309 0  0.378125 0.05244637078450034 0  1.008571329007178 0.2705955969954818 0  0.7724048032149464 0.1559079561351474 0  0.7203054377831548 0.04941826955193545 0  1.192836486056382 0.3562350748565544 0  0.5967108020713719 0.1479294686523888 0  1.28257088594801 0.2944411014911587 0  0.7041890234548132 0.1222025174424443 0  1.474860187679412 0.2504218616229368 0  1.406767003493824 0.2829282258560709 0  0.3201325899091991 0.05890121548989159 0  0.5979220912872258 0.2727591995766724 0  1.845656689180403 0.1998310418452388 0  2.144958525570388 0.2909790873294231 0  2.2 0.15375 0  1.57794966442982 0.3540357145964566 0  0.9483181579620558 0.1214693369582054 0  0.0496154796471391 0.333125 0  1.508991196088596 0.1421783375065625 0  0.09776612425612034 0.2204896805326566 0  1.50436820029908 0.06143401634903343 0  1.223857000523521 0.0823554862453532 0  0.2531953886959507 0.3582003209055908 0  1.153316824384777 0.1289850171317837 0  2.148922302309752 0.1258841779285271 0  1.621993280276081 0.2841214267927899 0  1.550118654119087 0.2461998729100966 0  1.327182649291491 0.1216967252533594 0  1.753125 0.04556020050186112 0  1.271875 0.04556020050186116 0  0.9824282234771738 0.05051969257615314 0  1.039510847866381 0.05683351822678641 0  1.94956388244759 0.1180512551534177 0  1.949997712993411 0.04965831614304109 0  1.771961817615021 0.1530278789497521 0  1.909246823951428 0.2812757146784527 0  1.101974016627944 0.2038045618205013 0  0.7906250000000001 0.0444674049654372 0  1.948575539857022 0.2445328248721197 0  1.697271520964565 0.1233917627620729 0  1.065625 0.3689344961371042 0  1.085849084308977 0.3170853572226867 0  0.9840604787624379 0.3582077516409966 0  1.577403511714593 0.05463601888079143 0  0.05622663515370135 0.05493816910862376 0  0.8762396958822678 0.3392249777398821 0  1.751571320346033 0.3651102912045228 0  1.055327852410105 0.111864799513911 0  0.1583785085108421 0.2994699345738728 0  0.1455283439499995 0.3542795598723423 0  2.2 0.35875 0  0.225705107073232 0.05084786997482401 0  0.1455852234589313 0.1166494778469164 0  1.466879772203159 0.3611261772912453 0  1.990280163552011 0.3564754268533217 0  1.17471064520912 0.2990917256188288 0  0.7221925551074015 0.1739659241003985 0  0 0.25625 0  2.2 0.25625 0  2.2 0.05125 0  0 0.15375 0  1.853978576207987 0.35875 0  0.21965520498276 0.1015543880164422 0  1.515638456102889 0.2882700110184686 0  0.09048297387599738 0.3637717362208066 0  2.150453692751374 0.2387066338105111 0  1.323782677156475 0.04897634338873398 0  1.409375 0.03715320121951221 0  1.406484531114799 0.1087852750766809 0  1.134375 0.03715320121951218 0  1.627401732573545 0.04552157221025036 0  0.446875 0.3713289093361426 0  2.045405893604797 0.1105340662939892 0  1.255408269734577 0.1577307500159216 0  2.028125 0.03707597992059326 0  0.04420832937638274 0.128125 0  0.5817551710628505 0.3702615006034757 0  0.1197849154434487 0.2663398672460083 0  1.248258025468107 0.2565907092181813 0  0.1300647302703173 0.0508462728378621 0  0.7738123537510222 0.2761231499240648 0  1.203125 0.0366132337404304 0  0.5444207041612499 0.111205399508622 0  0.8016457771828226 0.1964238426015905 0  2.072662025974815 0.2975086504196739 0  0.4019040438866802 0.2103993403217561 0  0.4677372330974851 0.04827477407630658 0  0.8677218578847617 0.1432970430140788 0  1.058011122005847 0.2758866204059919 0  0.4429405887974043 0.2746184809910084 0  0.5843750000000001 0.03726989681835222 0  0.6318596133730142 0.1128692182767254 0  0.4862628454464408 0.2957029785303028 0  0.7805186758662764 0.3673578380827891 0  1.887722846421017 0.1760882698830035 0  0.3498893058880703 0.256189258793856 0  1.472640588990488 0.1118278026240017 0  1.865937103925594 0.2604137786483804 0
[...]
<PointData  Scalars="f_43"> 
<DataArray  type="Float64"  Name="f_43"  format="ascii">4.2219634125575140e-01  4.5187202662504317e-01  -1.4583858126063470e-09  1.4168757230195766e-09  -3.6183696061432447e-01  -3.2643396233861594e-01  -3.5001567350217871e-01  -5.1750950747811053e-01  -9.3536970179701151e-01  8.6067224983654711e-01  1.9956199681094078e+00  4.0049346066606534e-01  -1.1575907527315121e+00  -5.0877041336121176e-01  -2.7914765937728725e-01  -2.5586651336804983e-01  -2.9254814237860133e-01  -4.5804602886452406e-01  -1.2596459386637132e-01  -1.0414432220343957e-01  -2.9454334481934691e-01  -1.4826324824445389e-01  -7.9162444593485162e-02  -5.2550627124390903e-01  5.4710711837236527e-03  7.6390552488745134e-01  -2.9649813959487934e-02  -1.9969693141845524e-01  -2.0123776917343411e-01  -1.4532344294708444e-03  2.0845564574471016e-02  2.5310110851149065e-02  3.0503350922325461e-02  -5.6386337709354159e-03  3.3751262367717215e-02  1.9021664622851143e-02  9.5820306981608001e-03  -9.1167098371970332e-02  -8.5207889491108815e-02  1.2516885926876352e-02  2.1505362720468716e-02  1.2411936057471026e-02  1.0875294352283453e-02  -2.1710025659637587e-10  -7.5286074689278656e-02  1.5297329180505317e-02  6.1879235595885627e-03  -1.4440199449439592e-01  1.7126268990397726e-02  -1.6939141409097616e-09  -1.5549147068044838e-01  3.8713664570493925e-02  -3.6971626775882693e-03  2.8318758228978419e-02  2.6019443468235065e-02  4.5834358503291017e-03  -5.9656043067423149e-02  -2.5388930704044105e-02  -1.9417369849357183e-01  3.6859634558533561e-01  3.4698772426138214e-01  -1.7725490231338198e-01  1.3346630051409689e-02  2.1602203846536324e-02  -4.9778773793997698e-03  2.9820180741709067e-02  -2.5715728409553284e-02  3.1696366342482060e-02  3.2135796869854030e-02  -2.5432523620021258e-01  2.3482569704674206e-02  5.3332950605920609e-03  1.8800564335690075e-02  -1.8643568054680672e-02  -5.0981602755049378e-02  -2.9952537279254093e-01  5.1873672409446181e-01  5.5186416063796395e-01  -1.9773465481006472e-01  -9.0480733395540039e-02  -1.9522757876641078e-01  1.1932353559705174e-02  -3.1315514820931881e-02  9.8115949455893862e-03  2.1930111147197406e-02  -2.1493785160571046e-03  -1.0821749559061945e-02  -1.1461297886984928e-01  7.4137146475301719e-03  2.1590050282888393e-02  5.7411702074001833e-03  -3.5493526853796679e-09  -1.1024907955785855e-02  3.1994840113818097e-02  9.5758712989326162e-03  2.7351134267029932e-02  -3.5498366061315217e-01  -2.1777954170076139e-01  -1.9246787201372144e-03  5.6072419291822717e-03  4.6224839398255158e-01  3.9195414885183459e-02  -5.7665583494431651e-03  1.5080712754437856e-01  2.1869787948563420e-02  -2.0101880155333679e-01  -2.1754922590898176e-01  4.9040170976703623e-01  1.6467818711567344e-03  5.6326971405164083e-03  1.2817917662078213e-02  2.4521884324326931e-02  1.9618200108525541e-01  3.4431686333481399e-03  -2.0695918516857978e-01  -2.1223731714675878e-01  2.5552320230178085e-02  -2.2621867902667228e-01  4.3599753032556123e-02  -1.5111676279324648e-01  -2.9351892644636772e-02  1.8538540551912824e-02  -1.5610818642503196e-01  -5.4586516601347196e-02  -2.2077941181689847e-01  2.1288573841312658e-01  8.9619498677692599e-01  7.1917393468157076e-01  -1.8327449135009866e-01  1.9132521628442214e-02  -1.3121583651480643e-02  -3.6685784769497926e-03  1.5364418360790128e-02  -9.8636771071523646e-03  6.0335659202755167e-03  -2.2168451309269375e-03  2.9723301754843143e-02  -1.8684010468388856e-01  2.2512914801026254e-02  3.1685992064166071e-02  -2.9748946380057175e-02  4.1002434086979106e-01  4.3436645924099077e-01  4.1029567947033123e-03  1.2660937922372318e-02  -4.6717589956963512e-02  2.4683254261923245e-02  2.5317112882129546e-02  1.1995081746803738e-02  2.1711327425040609e-02  2.0251742307568137e-02  1.0157204194323069e-02  -1.2479489281248893e-01  -1.1019602659544762e-01  -7.2955943887041907e-02  -1.3918563416485397e-01  -1.0762695524352434e-01  1.9702178900750517e-01  4.3756110229129186e-01  2.2129995086037073e-02  -1.9223306151680809e-02  -1.7512021569076458e-01  2.7627813433576173e-02  1.0197347943072258e-02  1.3576902079807975e-02  -3.3947911354242066e-01  3.6158368156976498e-02  -3.6133716786194342e-02  4.2131105159002549e-02  -2.1529521359124190e-01  -2.4244187235030826e-01  -1.6340166867183867e-01  9.9575704858506763e-03  6.0652846678427869e-03  2.6809272535827090e-02  2.6074922245193585e-02  3.2871727597259835e-02  6.2711823784994099e-03  7.7343130481202487e-03  7.0496609019688019e-03  1.6432119323020251e-02  2.4022247356990069e-02  4.3671373870593552e-03  -3.3106827430988868e-02  1.2047003168029407e-02  -3.5166535238015389e-01  -8.4164706109812720e-02  3.2654481201929673e-02  -1.9690474913018126e-02  -1.3229589557690760e-01  3.1694459570161197e-02  -1.6778351081699097e-01  -8.4393061351253976e-02  3.7790023606392185e-02  -1.5257427554124342e-01  -1.8485502573905863e-01  9.5334619247199621e-03  -3.5385793074878213e-01  -3.7239156977431437e-01  1.7216067467925738e-02  1.5654245314994251e-03  2.5979687151295856e-02  -3.2360497998867831e-03  -6.7338842708853083e-02  3.6736745939745255e-02  2.3940811150025582e-02  -1.6552052691567867e-02  7.3275533904555270e-03  4.6480352540138442e-01  -7.3857864678774088e-02  -1.9057526180579001e-01  2.0793608216452806e-03  -4.1334255433512747e-02  -1.2310698459490557e-01  -2.7856585148992259e-02  -2.5611179909556936e-01  1.8099228082839428e-02  -1.2303065343192368e-01  1.8405081036435397e-02  3.2303614248370485e-02  -1.3448035165135278e-01  -2.5012361799672000e-01  1.8709476865402440e-02  7.7602950893864188e-03  -3.2118359452806690e-10  -2.2132305973004305e-03  -3.2751682134344734e-02  4.5776988188339307e-01  2.8068244235788187e-02  1.1161615204823978e+00  2.9008448750128726e-02  2.1541709606543141e-02  3.0791589680889513e-02  2.4198901760341774e-02  4.9408254502119530e-03  1.1349011473156182e-02  -4.8214526553139944e-03  -7.4005404032268440e-03  2.5089397245803807e-02  4.3741223204761363e-03  -5.4449569306937014e-02  -2.6228989791895151e-02  1.7277234691849681e-02  1.5787485016672227e-02  1.6007789095006813e-02  8.8402352797949113e-03  -8.8075854240771325e-03  -9.1673560309737889e-02  1.3032648673168072e-02  2.3448730142379096e-02  -2.2369998756736502e-02  -2.3933530064142627e-02  -1.5547648740883241e-02  3.1913960513538057e-02  4.5797843739958599e-01  -5.4427397291400031e-02  4.6666947298238649e-02  -2.9424465593485718e-03  2.3008651346841424e-01  3.2137932412024606e-01  1.8608691863301693e-09  9.7860465549321277e-02  3.3625617436893723e-01  1.6142102910173206e-02  1.2621535720730527e-02  -2.6728750383274789e-02  -9.3146573712482694e-02  6.6983827750326019e-01  -1.6939141409097616e-09  -3.6313864752097481e-09  6.9561065708129421e-01  2.0185521702522455e-02  -1.4126930028432830e-01  5.3060358072665945e-03  4.0138362883842438e-01  4.8662229680963495e-03  -9.5761639113704413e-03  -4.6275919853722955e-04  -2.4425762661603807e-03  1.8699118184172088e-02  3.0866047762842384e-02  -1.9375041853991840e-01  5.0746895562628399e-03  1.2757242541478373e-02  6.5103844612806492e-03  6.3873877171947191e-01  -1.9488047533635555e-01  6.6574248408526115e-01  1.5023736852048893e-02  3.7414752765027115e-01  -7.7947228421592740e-02  2.2277225773470744e-02  -2.7735339653421454e-01  -1.9316393676825291e-02  1.6189650172325230e-02  -3.3446947884733591e-01  -2.0493748585374841e-01  -2.9602711523280568e-02  -1.4713498228745066e-02  -2.2263137361437529e-01  -1.8944464491726026e-01  -2.0382138306791550e-01  -2.2847844437474366e-01  -1.1121503136480498e-01  2.0281100656448284e-02  -3.5421741607870039e-01  2.0593398854386283e-02  9.9691954434273054e-03  -7.0833682617708268e-03  1.6846159297745904e-02  -1.3057399400842770e-01  3.7613107405038912e-02  -1.4023085048541103e-01  -1.7057167632351977e-01  -1.3280727715293364e-01  8.5306304147787573e-03  -2.2038908395701517e-01  -1.9543960603741634e-01  3.9537325300256186e-02  -2.9175296030378906e-01  -2.4039502076067246e-01  3.4656999804734252e-02  6.0616719960926010e-03  1.8329817136527437e-03  -5.0028677316044372e-02  1.6810517245591954e-02  -3.4666498812435242e-01  -3.5964833540471447e-01  3.2486169966062996e-02  -3.6587666413926112e-01  9.0339367488409250e-01  3.1495059697978500e-02  8.3905829684283806e-01  1.7583892161167805e-02  1.6822518352775442e-02  -1.7443324708365373e-02  5.7135495144300117e-03  1.4502905780161045e-02  1.7463287154427333e-02  -4.6653143386310115e-03  2.3960744364553782e-02  1.2886315317867830e-02  -1.6463893418285491e-01  -2.8988064737056668e-01  2.1818405683901042e-02  -7.2906978492513555e-02  1.4608877810201473e-02  3.0288273430290721e-02  1.3683318048297942e-02  2.1407385220014761e-02  1.8922382741648848e-02  -2.0438177479953715e-01  -1.9889601954188246e-01  1.4987884470501703e-03  2.9254404866578199e-02  2.7681666293092252e-02  4.5155556790443330e-03  6.0641213658854795e-03  4.1970083406532721e-01  -3.0633200623275780e-01  -3.9760433796756034e-02  1.9353047749649188e-02  2.5199354036338786e-02  2.5911830661290887e-02  -7.5196036938611557e-02  3.1109733343085699e-02  7.9297286466157059e-03  -6.9636367199426244e-02  -2.4281204697302869e-02  2.9895866403216953e-02  4.6399565951807109e-02  2.9233435202204189e-01  2.9213869895203651e-02  -2.0597459662912607e-01  -2.0325077504927971e-01  -6.0430044185423876e-03  2.8202262684070056e-01  5.4348135655972679e-03  -1.5817199164422945e-02  3.7441487271509064e-03  -2.5222806325520458e-01  -8.6948173807730508e-03  6.8343355390089924e-03  1.9086031331059961e-02  2.6617884409291938e-03  -2.6624481270937816e-01  -1.8016933087953815e-01  1.2456077955929257e-02  2.1038082655608126e-02  -1.8700201279789285e-02  1.3846358715256468e-02  -1.2184738282148885e-02  4.3906717197512209e-03  4.1356229454884996e-01  3.0707233798829336e-02  -1.4419892420635844e-01  -2.1346966605286671e-01  -1.3785274202460138e-01  1.0015178284496743e-02  -3.3893509636539937e-01  1.2714753870093298e-02  -7.7980744635595192e-02  2.6001554362675101e-02  2.3089550823690113e-02  2.0363327833682054e-02  -5.5907825073626759e-02  2.9171868958371379e-02  2.5878286629270292e-02  2.9887652298368837e-02  3.0461465181415869e-02  4.4919789345114830e-01  4.2254914779295860e-01  1.7529456475339832e-02  7.1661879530910567e-03  -7.6589990809368305e-02  -7.6746958544413546e-02  -2.0159057727061978e-02  1.8574703439598522e-02  5.5458255191539518e-01  -2.4021482647428063e-01  6.9033746213091074e-01  -1.7686175589551820e-01  2.2661838668352762e-02  -7.9742661975777882e-02  -1.4784281917409346e-02  -2.5984091847277818e-01  2.3119526195480224e-02  7.5985106976685379e-01  -1.8880523696870122e-01  5.0796280606685519e-03  2.7210244616629648e-02  2.5226280212291502e-01  3.6179379080933547e-03  5.9500581579914646e-01  3.0489735669241631e-02  -1.1802228519094203e-01  2.2009418852215731e-02  1.3532789448880559e-02  1.6685941904764277e-02  -1.8660114841725605e-04  -9.4947761861917338e-03  -9.9383451891576820e-03  1.0846570782898675e-02  2.2287701134262140e-02  -8.9365786267004404e-03  -1.9664414820971579e-01  1.2853741557231619e-02  -2.2080823615454212e-01  -1.6120890940342586e-01  2.5754315866189200e-02  1.5190044725798154e-02  5.2613727621731554e-01  6.2982940997038722e-04  2.7355120172363238e-02  2.3039195039085075e-01  4.3274842850930206e-01  -1.9347494517833692e-02  4.9517090344598685e-01  1.4764314653132120e-02  -6.0136532947406778e-02  1.7889135533060589e-02  -2.0581724043846741e-01  1.0527043689397937e-03  2.6064554072953518e-02  -1.6768521182856436e-01  -5.2590478058655056e-02  1.4358214440226483e-02  1.6514136721281578e-02  -7.1551750156434732e-03  1.2533537781883507e-02  -5.6082528718899974e-02  8.2913536608760826e-03  3.4313143414690397e-03  4.4486225880158270e-02  3.2530533723123110e-02  -3.4507282618993712e-01  -4.0377491267595935e-03  -2.9919491672383867e-02  4.3713053125670797e-03  5.1016869208530130e-03  1.3059192294504007e-02  1.3672648316050367e-02  4.6499132173001673e-05  2.5303648815421534e-02  2.0098594469193660e-02  -5.8458204114937452e-03  -2.0764241974212860e-01  -2.0127784448263153e-01  9.4233045804044957e-02  -8.8796208042845479e-02  -1.0770019128735402e-01  -2.0420407958585501e-01  -1.7830461854609544e-01  1.3603685535971592e+00  -4.0380545605254788e-02  1.5413299399421798e-01  -3.3238319564707464e-02  -3.2110543585297455e-02  2.6253762116100275e-02  3.2108594921937829e-02  3.6139854941404620e-02  -3.3975984144678867e-02  1.1288479887307112e-02  6.5296123506167021e-03  -1.9175253070236618e-02  -3.2787772116939318e-01  -2.0410480317370508e-01  2.4510285770365087e-02  -3.4251054572747136e-01  -2.6599028566102095e-01  1.4373293601477457e-02  -2.9926187550830563e-01  -3.5264899808045808e-01  3.3548002717903765e-02  3.6653446740105802e-02  1.0551053907543755e-02  6.6632507689035510e-03  1.2412204189969777e-02  1.0677291546282849e-02  -2.2546319725130867e-01  -3.2175854186887468e-02  -2.2843828045813537e-02  -2.3069429247076754e-02  2.3837855339919410e-02  -7.6400616219195784e-03  3.5312691571859171e-03  6.2919198105221598e-03  1.6830244203455409e-03  1.2386115848142403e-02  4.4364234389377324e-02  -2.3672002915021879e-02  2.6208087480280685e-02  -1.2655377264900419e-01  -6.7430010614837221e-02  -3.7770382987107783e-02  2.9431514023822939e-02  1.7076323679329639e-02  5.0423910951179866e-03  -1.1118486161383119e-02  -1.9256259706318041e-01  -1.7330062608332869e-01  -1.4876002553809778e-01  3.8701836394757133e-01  1.0842927336955942e-01  -1.0840942343528034e-01  -1.9062210058995979e-01  -1.9463463628727995e-01  -9.6191905954158233e-02  -5.4408798159754690e-02  -1.1816337551942031e-01  -1.6018983004303308e-01  -1.7017123334128575e-01  2.0098369780088991e-02  3.1240687620501920e-02  1.4344420337044410e-02  4.1965481397675504e-03  7.3629125097328975e-03  1.0588040700781790e-02  -4.6450094753285265e-02  4.4712349088573348e-02  -1.6490412324292378e-01  8.3253489197402351e-03  3.4054916964493878e-02  9.1998586879796489e-03  1.1412414372282190e-02  1.0963345631714333e-02  2.1782915849338093e-02  -9.5556098557863275e-02  -5.6350847631924210e-02  -3.1803263324230852e-01  -3.3734189370689710e-01  -1.3749531456464628e-01  -5.9781191148091019e-03  2.8710505795173629e-02  2.8284682185960724e-02  1.6757514174266526e-02  3.8892628942156365e-01  -3.4769013738135131e-02  -1.3769326968329774e-03  1.0402333213323718e-02  -1.1335688893871831e-01  2.1493907176131057e-02  2.8530329747240757e-01  2.5435481699626224e-02  2.6972148162613053e-02  3.8169681559861238e-02  9.4046619379203316e-03  1.3577111072185542e-02  -1.4791935327751612e-01  2.9481691916338419e-02  -7.0338951581445097e-02  2.4261805899126642e-02  3.1336537325940619e-02  1.0969981778275822e-02  -1.7208616073898475e-01  5.7946897815751193e-03  8.0054823736736488e-03  7.3416344128038691e-01  -1.8907128937445400e-01  1.6348065276921408e-02  3.1356332531604407e-02  -2.7178006488475848e-01  -7.5142587984919809e-02  5.6145329111585863e-03  4.0088564816822018e-03  -6.4886043241136511e-03  7.9799450114368842e-01  -3.9220758166483918e-03  6.2206902965967238e-03  1.0563818731772938e-02  2.1473174800480506e-02  3.6529612692851438e-01  1.7066089480588114e-02  3.2535038549045420e-01  -2.6223312850156513e-02  1.7176005497342703e-02  -3.6204184928651001e-01  -3.6788994214092152e-01  3.5417094229815566e-02  -3.5516911783564103e-01  -5.8848395715915665e-02  2.6924917935511074e-02  3.7430172087239269e-02  1.4671414515997740e-02  1.4945357371557768e-02  -3.2454755322088302e-02  3.4772126711468537e-03  -3.9027305985502238e-03  -4.4423428855625655e-02  3.1864326563349199e-02  -1.9952015288669439e-01  3.2205716063894593e-02  3.1000234417775652e-02  9.5236809224558388e-03  -8.2984264928035609e-02  -1.4616587542364923e-01  -1.1177341442534452e-01  -9.4890837008145587e-02  -2.4101535314067376e-04  3.4662594192628343e-04  -2.6674936209670241e-01  -1.7776596323994351e-01  -2.0221892078713644e-01  5.0312590126225737e-03  5.7845827288543517e-01  2.0738975093890420e-02  -7.5966661265928718e-03  -1.1218953988267967e-01  -1.2502858304916121e-02  -2.3999579312960526e-01  1.5646390686377912e-02  -3.5350799298323643e-01  2.0690789881539592e-02  -1.5407758700838725e-01  -1.8299966394844067e-01  -2.1226812024009864e-01  5.5479442804893565e-03  1.7182139107778049e-02  3.1534517477446754e-02  2.3644103034504531e-02  -2.5639622206967815e-02  -9.2571392448156056e-02  1.1198486859560164e+00  3.8408066725976395e-02  -1.1787035860542359e-02  -3.2541780712526291e-01  1.8507974512792461e-02  -9.7026154728635451e-04  2.4022799217376756e-02  2.1411471477650146e-02  3.2218297754462798e-02  2.1315498416108174e-02  7.5869424195747423e-03  2.6044312437754846e-02  1.1183730373632834e-02  -6.4480914554675334e-02  -7.1040498133990909e-02  4.5227212707112074e-01  4.5053180824627176e-01  2.9790207037432299e-02  -2.7682148797868283e-01  2.4198299233453763e-02  5.7706278141958535e-03  -9.6335993391987373e-04  -4.6889030144606370e-03  2.0584433773835887e-02  -1.1929456727263827e-02  5.9977663950348425e-01  -4.0382542638625347e-02  -3.8748930066468067e-03  6.7735032182021815e-02  2.4140396923540658e-01  -1.2468750125680107e-01  1.2543291486966599e-02  3.3996615756941920e-02  -2.5186267919315941e-01  -2.2875717722794439e-01  -3.5392437492424694e-01  1.0986479468473901e-02  2.5107252056283617e-02  -2.7110734178324319e-01  4.3494305774809328e-01  7.4769924266046317e-01  5.3032625853479841e-03  -1.4007973366589924e-01  2.6036415293063105e-02  8.7098472289148625e-03  3.2067749940855587e-02  1.1879715560292719e-02  -2.1710025659637587e-10  -2.1625116722645221e-01  2.3450946264846895e-02  4.7101021891882691e-03  -2.2070581859766297e-01  -2.1366612471873503e-01  1.5410740338890692e-02  -1.3602313133379934e-01  3.8661866481577334e-01  3.7151855055354571e-01  6.0736242597390624e-03  1.4497190887170995e-02  2.1941455158133165e-02  1.8606590678429111e-02  1.2131828490695620e-02  9.8259613275953270e-03  1.4902620678155037e-02  -1.8565522699593148e-01  3.3165165872654646e-02  3.1297917714216354e-02  -1.4457535533176288e-02  -1.9390867750337149e-02  -7.9815370227212468e-02  -2.2855281527281301e-01  1.1882325596082476e-02  -1.3174370913927680e-01  3.9435918529431818e-02  -3.5493526853796679e-09  6.4318818624849016e-03  2.2756077434266719e-02  1.4540572576636088e-02  -1.4383306289747358e-01  2.5513625934072005e-02  8.9509693691541322e-03  -3.2398741694347435e-02  -2.4045796584774886e-02  -2.7854886852258821e-02  -4.2328800030699200e-02  1.4965455796408731e-02  -2.3409315071364616e-02  -9.8859191420407073e-03  -4.2153587160077922e-02  2.4807060538527850e-02  1.4875696427358236e-02  -1.5722282196874320e-02  3.8986306396029352e-01  -2.1340342488237955e-02  4.2785924721864668e-02  -6.4107256822993966e-02  9.9314889688876876e-03  8.3804269624631403e-03  4.3923054167940507e-03  -2.0823039417836411e-01  6.6001045242419613e-03  1.1439075919211311e-02  -1.0065796087751613e-02  -2.2887131273345332e-01  -3.1260428153763930e-03  2.6592907017827686e-02  2.5562726051051868e-02  -1.9143674022119597e-01  -2.0493929269933508e-01  3.2231761792309271e-02  -2.2494489418491614e-01  -2.5191841754251104e-01  -2.4736965840809594e-01  2.4318315140859869e-02  2.5827096227224376e-02  -2.8327175266468787e-03  -4.2714790525373131e-01  -1.9029684721111113e-02  -1.3287747278958811e-01  1.9585261138301330e-04  3.1712896825769943e-01  -3.5742922516534915e-02  1.8974551636696643e-02  -1.0756044226421231e-01  -2.1710025659637587e-10  1.0742947765059387e+00  8.7511506064265765e-01  -1.1385345535766546e-02  -4.0137073385876770e-02  -1.5346944609290397e-01  -4.2231929549524337e-03  4.7977666377577782e-03  -1.3722025731433579e-01  2.1239136275329827e-02  -1.9282442229522070e-01  5.1942437943341568e-01  4.6494145640054507e-01  4.6948420558440929e-01  1.8452343955464925e-02  1.1050638899276771e-02  -8.3888582078744803e-05  -1.2886554252186442e-03  -3.5221674586510027e-03  3.6950505813147232e-02  5.2443306371869192e-01  2.6550783319190755e-02  -3.8012467686112528e-01  2.7230837647782166e-02  2.0326782528404721e-02  4.3114280846698862e-02  2.0174689177133602e-02  1.7698742017367850e-02  -1.9844645432766