<?xml version="1.0"?>
<VTKFile type="UnstructuredGrid"  version="0.1"  >
<UnstructuredGrid>
<Piece  NumberOfPoints="2426" NumberOfCells="4534">
<Points>
<DataArray  type="Float64"  NumberOfComponents="3"  format="ascii">0 0.41 0  0 0 0  2.2 0 0  2.2 0.41 0  0.2404508497187474 0.2293892626146237 0  0.25 0.2 0  0.2404508497187474 0.1706107373853764 0  0.2154508497187474 0.1524471741852423 0  0.1845491502812526 0.1524471741852423 0  0.1595491502812526 0.1706107373853764 0  0.15 0.2 0  0.1595491502812526 0.2293892626146237 0  0.1845491502812527 0.2475528258147577 0  0.2154508497187474 0.2475528258147577 0  0.5404508497187474 0.2293892626146237 0  0.55 0.2 0  0.5404508497187474 0.1706107373853764 0  0.5154508497187473 0.1524471741852423 0  0.4845491502812526 0.1524471741852423 0  0.4595491502812526 0.1706107373853764 0  0.45 0.2 0  0.4595491502812526 0.2293892626146237 0  0.4845491502812526 0.2475528258147577 0  0.5154508497187473 0.2475528258147577 0  1.1 0 0  0 0.205 0  1.1 0.41 0  0.55 0 0  0.55 0.41 0  0.275 0 0  0.275 0.41 0  1.65 0.41 0  1.65 0 0  1.375 0 0  1.375 0.41 0  1.925 0 0  1.925 0.41 0  0.8250000000000001 0.41 0  0.8250000000000001 0 0  1.5125 0.205 0  1.7875 0.205 0  0.9625000000000001 0.205 0  1.2375 0.205 0  2.2 0.205 0  0.7560964076246335 0.2151713709677419 0  1.99375 0.2152743902439024 0  2.0625 0 0  0.6875 0 0  2.0625 0.41 0  2.2 0.3075 0  0.6875 0.41 0  1.7875 0.41 0  1.375 0.1486128048780488 0  1.5125 0 0  1.7875 0 0  1.5125 0.41 0  0.9625000000000001 0 0  0.9625000000000001 0.41 0  0.4125 0 0  0.1375 0 0  0.1375 0.41 0  0.4125 0.41 0  1.2375 0 0  1.1 0.1486128048780487 0  1.2375 0.41 0  1.65 0.1486128048780487 0  1.126715909090909 0.2793064024390244 0  1.676715909090909 0.2793064024390244 0  1.348284090909091 0.2793064024390244 0  0.34375 0.3032389320646208 0  1.894702181800738 0.1282910975492754 0  2.092797818199262 0.1282910975492754 0  1.85625 0.3075 0  0.8630851210521902 0.286932093388664 0  0.89375 0.1025 0  0.35 0.1090282786671641 0  0 0.3075 0  0 0.1025 0  0.6526217841291382 0.288229645480046 0  0.7562500000000001 0.09660248895515888 0  0.6568633732316684 0.1557582854763441 0  2.099172119769978 0.25625 0  1.002356446954348 0.1010393851523063 0  1.99375 0.08395950269330846 0  1.459960956013612 0.3075 0  1.569025960719943 0.2986889805672169 0  1.03125 0.3278689922742084 0  0.75625 0.3247156761655783 0  1.959375 0.3126371951219512 0  1.749222215368287 0.1025 0  1.275777784631713 0.1025 0  2.2 0.1025 0  1.225938124459196 0.3075 0  1.550777784631713 0.1025 0  1.44375 0.07430640243902442 0  1.16875 0.07430640243902437 0  0.3528655045338512 0.2063263890916129 0  0.5890337614812103 0.08775733857679162 0  0.8504912436891263 0.190072835691683 0  1.899250267340833 0.2229966846119207 0  0.1020898364287272 0.3140258291809757 0  1.766482954545455 0.2934032012195123 0  1.051658316544432 0.2265720188842194 0  0.2 0.3400647632937836 0  1.421109702350723 0.2261157654379721 0  0.4812500000000001 0.41 0  0.4324401666997539 0.3216425986889796 0  0.098916018031319 0.09171660955420841 0  0.9508742791313441 0.2921736960864468 0  2.13125 0 0  2.118919042110979 0.3422084711244843 0  1.30625 0.41 0  0.20625 0 0  1.597888256393107 0.2173787389261347 0  0.4812500000000001 0 0  0.4324082967851086 0.08384041677422771 0  1.829299675393195 0.07400700849299596 0  0.568219932524165 0.3212274660843853 0  1.71875 0.41 0  0.268005226542646 0.08512186835670006 0  1.16875 0.41 0  2.038220665644273 0.332420740103091 0  0.6678017527842831 0.07701763866051195 0  0.89375 0.41 0  0.5111435174287687 0.07335351331957608 0  0.176193934632343 0.0734896648625108 0  0.07390688010811153 0.1697064032433452 0  0.05452951551825875 0.25625 0  0.61875 0.41 0  1.452769549894695 0.1548122580621249 0  1.369219062229598 0.07430640243902442 0  1.30625 0 0  1.720943423819132 0.1714577452753128 0  1.157188124459196 0.205 0  1.094219062229598 0.07430640243902437 0  1.304056576180868 0.1714577452753128 0  1.67579304192913 0.07430640243902437 0  0.2672907219039591 0.3037570723459566 0  1.209670467133757 0.1362100266964769 0  1.58125 0 0  1.03125 0 0  0.06875000000000001 0.41 0  0 0.35875 0  1.58125 0.41 0  1.631724228912893 0.3381867502687533 0  0.8240147050827157 0.1225233169495944 0  1.825608881788174 0.14499488549201 0  1.85625 0 0  1.44375 0 0  1.44375 0.41 0  1.85625 0.41 0  2.13125 0.41 0  0.7562500000000001 0.41 0  0.7562500000000001 0 0  0.89375 0 0  0.34375 0 0  0.34375 0.41 0  0.20625 0.41 0  0.06875000000000001 0 0  1.16875 0 0  1.03125 0.41 0  0.61875 0 0  1.71875 0 0  1.99375 0 0  1.99375 0.41 0  0.3972301426712326 0.2593842555611471 0  1.340625 0.3489494290853124 0  1.134375 0.3489494290853123 0  1.700180620188976 0.3438659752031281 0  0.5003922072260507 0.341765274319271 0  0.6212513815748759 0.2209216137134851 0  0.6885607720119526 0.215393731583638 0  1.033412357328477 0.1612902025713047 0  2.135782184673599 0.07126652247502523 0  1.668441847249787 0.2129203728327609 0  1.295782514339747 0.2378437748815763 0  1.409375 0.3520314716057996 0  2.129248544730567 0.1906135162504124 0  2.060771381434487 0.1989445750470348 0  2.013252586573865 0.1496169464686054 0  1.942766402200229 0.1734448904596831 0  1.895522487186454 0.06076163953489683 0  2.069553871656643 0.06605731020975725 0  0.9281250000000001 0.3539050257418612 0  1.274680914880868 0.3520219391081363 0  0.3030138498135347 0.2488370856812789 0  0.8223773249563684 0.341761430177996 0  0.9018164060227267 0.2326477848736739 0  0.8143027982392851 0.2440265179987191 0  0.7225087161029304 0.2699907246386231 0  1.614713220494657 0.09473434380863296 0  0.378125 0.3566194660323104 0  0.309375 0.3566194660323104 0  1.72990325744076 0.2380068107952482 0  0.6915936999299305 0.3429472631234433 0  0.6268087624932918 0.3466455500035671 0  1.356580098625191 0.2120393231351682 0  0.3060160055995138 0.1590148921620778 0  0.3954648733249218 0.156380553890791 0  2.034370752044885 0.2668681600792073 0  1.51768709249349 0.3426260931494756 0  1.561883724969884 0.1650446847858835 0  1.197344062229598 0.2523725417393646 0  0.9281250000000001 0.05124999999999999 0  1.804085235518364 0.3468178408964637 0  1.817887819205233 0.2589243285818559 0  0.9107805776841645 0.1653834539923287 0  1.905897727272727 0.3485060975609756 0  0 0.05125 0  0.844212276491354 0.0614201194265309 0  0.378125 0.05244637078450034 0  1.008571329007178 0.2705955969954818 0  0.7724048032149464 0.1559079561351474 0  0.7203054377831548 0.04941826955193545 0  1.192836486056382 0.3562350748565544 0  0.5967108020713719 0.1479294686523888 0  1.28257088594801 0.2944411014911587 0  0.7041890234548132 0.1222025174424443 0  1.474860187679412 0.2504218616229368 0  1.406767003493824 0.2829282258560709 0  0.3201325899091991 0.05890121548989159 0  0.5979220912872258 0.2727591995766724 0  1.845656689180403 0.1998310418452388 0  2.144958525570388 0.2909790873294231 0  2.2 0.15375 0  1.57794966442982 0.3540357145964566 0  0.9483181579620558 0.1214693369582054 0  0.0496154796471391 0.333125 0  1.508991196088596 0.1421783375065625 0  0.09776612425612034 0.2204896805326566 0  1.50436820029908 0.06143401634903343 0  1.223857000523521 0.0823554862453532 0  0.2531953886959507 0.3582003209055908 0  1.153316824384777 0.1289850171317837 0  2.148922302309752 0.1258841779285271 0  1.621993280276081 0.2841214267927899 0  1.550118654119087 0.2461998729100966 0  1.327182649291491 0.1216967252533594 0  1.753125 0.04556020050186112 0  1.271875 0.04556020050186116 0  0.9824282234771738 0.05051969257615314 0  1.039510847866381 0.05683351822678641 0  1.94956388244759 0.1180512551534177 0  1.949997712993411 0.04965831614304109 0  1.771961817615021 0.1530278789497521 0  1.909246823951428 0.2812757146784527 0  1.101974016627944 0.2038045618205013 0  0.7906250000000001 0.0444674049654372 0  1.948575539857022 0.2445328248721197 0  1.697271520964565 0.1233917627620729 0  1.065625 0.3689344961371042 0  1.085849084308977 0.3170853572226867 0  0.9840604787624379 0.3582077516409966 0  1.577403511714593 0.05463601888079143 0  0.05622663515370135 0.05493816910862376 0  0.8762396958822678 0.3392249777398821 0  1.751571320346033 0.3651102912045228 0  1.055327852410105 0.111864799513911 0  0.1583785085108421 0.2994699345738728 0  0.1455283439499995 0.3542795598723423 0  2.2 0.35875 0  0.225705107073232 0.05084786997482401 0  0.1455852234589313 0.1166494778469164 0  1.466879772203159 0.3611261772912453 0  1.990280163552011 0.3564754268533217 0  1.17471064520912 0.2990917256188288 0  0.7221925551074015 0.1739659241003985 0  0 0.25625 0  2.2 0.25625 0  2.2 0.05125 0  0 0.15375 0  1.853978576207987 0.35875 0  0.21965520498276 0.1015543880164422 0  1.515638456102889 0.2882700110184686 0  0.09048297387599738 0.3637717362208066 0  2.150453692751374 0.2387066338105111 0  1.323782677156475 0.04897634338873398 0  1.409375 0.03715320121951221 0  1.406484531114799 0.1087852750766809 0  1.134375 0.03715320121951218 0  1.627401732573545 0.04552157221025036 0  0.446875 0.3713289093361426 0  2.045405893604797 0.1105340662939892 0  1.255408269734577 0.1577307500159216 0  2.028125 0.03707597992059326 0  0.04420832937638274 0.128125 0  0.5817551710628505 0.3702615006034757 0  0.1197849154434487 0.2663398672460083 0  1.248258025468107 0.2565907092181813 0  0.1300647302703173 0.0508462728378621 0  0.7738123537510222 0.2761231499240648 0  1.203125 0.0366132337404304 0  0.5444207041612499 0.111205399508622 0  0.8016457771828226 0.1964238426015905 0  2.072662025974815 0.2975086504196739 0  0.4019040438866802 0.2103993403217561 0  0.4677372330974851 0.04827477407630658 0  0.8677218578847617 0.1432970430140788 0  1.058011122005847 0.2758866204059919 0  0.4429405887974043 0.2746184809910084 0  0.5843750000000001 0.03726989681835222 0  0.6318596133730142 0.1128692182767254 0  0.4862628454464408 0.2957029785303028 0  0.7805186758662764 0.3673578380827891 0  1.887722846421017 0.1760882698830035 0  0.3498893058880703 0.256189258793856 0  1.472640588990488 0.1118278026240017 0  1.865937103925594 0.2604137786483804 0
[...]
<PointData  Scalars="f_43"> 
<DataArray  type="Float64"  Name="f_43"  format="ascii">4.2061718622627658e-01  4.5267776046082764e-01  1.5575606947208113e-09  1.1559913101128846e-09  -3.6419250599886999e-01  -3.2542912740788354e-01  -3.4627796378952319e-01  -5.1370239855415389e-01  -9.3000033123265302e-01  8.6393586425261693e-01  1.9954382276280982e+00  3.9685364314137495e-01  -1.1616016013765365e+00  -5.1051319799887918e-01  -2.6950132180342729e-01  -2.5681597676291884e-01  -3.0545194862529773e-01  -4.8169947504745403e-01  -1.4810224289858342e-01  -1.2184257575965880e-01  -2.9736120066737337e-01  -1.3288885776882348e-01  -5.8547490247557017e-02  -4.9555863506505327e-01  -1.7339056964035937e-04  7.6355741520249032e-01  -4.1897492126794205e-03  -2.1431281657154758e-01  -1.8811906917183688e-01  -1.2626079802456681e-03  1.8442527146474819e-02  6.5045106017772802e-02  6.1207893676740059e-02  4.1371752166313829e-02  4.2850384747577984e-02  3.0186056801161650e-02  3.0176113045866360e-02  -1.0731774312307855e-01  -7.4077186865761660e-02  6.4334565244880626e-02  4.6105825205302743e-02  2.0759778598454723e-02  2.1557203142448463e-02  2.6933152057952911e-09  -8.1888398767956727e-02  2.2733629929078205e-02  1.5061228421840274e-02  -1.5716217415309480e-01  1.5274677172551005e-02  1.0740668494341547e-09  -1.4502751931072252e-01  4.6187426823190492e-02  5.2250924282961679e-02  7.3610241731635370e-02  4.4991608054245812e-02  6.5646309387083268e-02  -5.5396516600153690e-02  -4.8423085025277715e-02  -1.9985618380680648e-01  3.6938981111494473e-01  3.4536528103734110e-01  -1.7549773275513936e-01  3.2019255530103319e-02  2.6053368259543627e-02  3.0508713788616144e-02  6.0231624105280566e-02  4.4014500172729178e-03  5.9710978772705932e-02  3.8902725090613648e-02  -2.6254211559477675e-01  3.3625040829064937e-02  1.1805710075822509e-02  3.7961913560674201e-02  -4.1835853873186613e-02  -3.2736830996992664e-02  -2.9956522135551772e-01  5.1732053106741349e-01  5.5254433671786540e-01  -1.8408762615165325e-01  -8.6600305112280312e-02  -2.1721425321643362e-01  1.1089946286451026e-02  -3.4625562788819245e-02  2.2768830099298969e-02  5.0667836567456492e-02  6.8427794005519932e-02  -1.4369180992845296e-02  -1.1818443545262389e-01  2.6494833070023135e-02  4.9461676548755773e-02  2.4194361047813855e-02  -1.9731918982307075e-09  2.8361716676403959e-02  6.9081374471873722e-02  6.1393008356788036e-02  3.2705604189207427e-02  -3.6364318197399087e-01  -2.3512546653142413e-01  7.2396177327780052e-03  3.3254351034974441e-02  4.6067266592711897e-01  4.8814002656083273e-02  1.1028553712869831e-02  1.4875282579122939e-01  4.6378056912497571e-02  -1.9324350537216786e-01  -2.1023867007754990e-01  4.9128503913674565e-01  -1.4569402948278572e-02  7.5155466048803677e-03  8.8648567414543918e-03  3.9481809279274964e-02  1.9696193061972628e-01  6.4999099992426188e-02  -2.1741125432471092e-01  -2.2522363699084841e-01  4.0499434110318547e-02  -2.1118178044852756e-01  5.5238649210366225e-02  -1.4944031762196713e-01  1.3521739456134524e-02  1.7784847169911563e-02  -1.7020883584193722e-01  -8.1012879386883355e-02  -2.3565432247830159e-01  2.1397920425622335e-01  8.9645284592867869e-01  7.1810861432788864e-01  -1.6857429238106358e-01  6.3095947052768483e-02  3.6410045010536719e-02  2.8172958464079086e-02  5.3387821580322875e-02  1.3213394870199359e-02  -3.2414842532893571e-03  2.5953172805155768e-02  5.7787691411542233e-02  -1.9102424483151711e-01  1.1714651916920383e-02  6.9906919088110489e-02  -4.0021365609090045e-02  4.0845645371322542e-01  4.3279977443341877e-01  7.0824308187927287e-02  6.7400726582832748e-02  -2.7206562626133392e-02  4.1330977287930594e-02  3.7483043763394085e-02  6.3089838552664729e-02  5.1586681795650395e-02  3.7827762617689269e-02  7.5247661100686300e-03  -1.2548691318876154e-01  -1.1274354159876367e-01  -5.6431270280315214e-02  -1.4110732117865923e-01  -1.0930681138188567e-01  1.9505512706404371e-01  4.3834976012433757e-01  3.0128448686310431e-02  -2.2350064726112850e-02  -1.9108235136277138e-01  5.2661440647445226e-02  2.2703802485933927e-02  2.2508160614802132e-02  -3.4193161962056873e-01  4.0817402524291363e-02  2.8116630811985508e-03  5.7853451585616084e-02  -2.0389682619578264e-01  -2.3006722960826509e-01  -1.5531170249389367e-01  1.5480481226526580e-02  7.0526634729292962e-03  5.9410966623537814e-02  3.8711683721813078e-02  4.3140143773199122e-02  7.8007810165204913e-03  1.5345502593058811e-02  2.0580135240288386e-02  2.8384219817070917e-02  3.3399005891025388e-02  1.4346870697400954e-02  -6.2204195929882661e-02  3.7710080708872440e-02  -3.6221353901632203e-01  -1.0195242257831091e-01  2.4204387504855669e-02  -4.3363906451720238e-02  -1.3614248685210281e-01  6.4448311648648143e-02  -1.6850238245376362e-01  -8.7484263101378343e-02  5.2957113203732344e-02  -1.4232338119962779e-01  -1.6966032036151280e-01  4.1822557658454641e-02  -3.4582905003329850e-01  -3.8654216786274614e-01  1.8217241357647570e-02  6.4144355129014050e-02  6.4957898031947209e-02  2.5633801039020285e-02  -5.2967869457588621e-02  4.4015984219316281e-02  4.2598713109475238e-02  -1.2873844711854200e-03  3.2323246252004716e-02  4.6560290864667031e-01  -5.7355922194142352e-02  -1.9470888776923534e-01  5.9235069553683429e-03  -2.4483481552701757e-02  -1.3215719069190879e-01  1.8826584720901526e-02  -2.7865654396905121e-01  3.8126713313581695e-02  -1.2626979984979619e-01  5.8069982439536164e-02  4.4253581740614528e-02  -1.3497974019126929e-01  -2.3262051270409323e-01  3.9335525212337498e-02  6.0363404982113743e-03  -1.9006899577870266e-09  7.1854146367971605e-02  -2.4082593980288784e-02  4.5623531878444412e-01  6.5730170974589164e-02  1.1154251644161857e+00  7.2747952366057050e-02  3.2669135112963328e-02  2.8218120086578820e-02  1.9868621658745825e-02  5.6393273275618895e-03  6.5680639149107198e-02  6.7226411702876021e-02  3.3115483536793049e-02  4.8683283371971232e-02  2.6951427391027495e-02  -5.5722047716296484e-02  -3.9589907851184214e-02  2.7618733017722299e-02  2.7526945236778046e-02  4.7470252014797348e-02  3.2050066333437405e-02  1.3105451040532684e-02  -8.7031894059674750e-02  2.7742763081630359e-02  5.5433777593686347e-02  -1.2615652841036525e-02  -4.0113969043318702e-03  -3.6203004678245068e-02  7.0187882320065079e-02  4.5878176121632119e-01  -8.1817233765315078e-02  5.0745360992406674e-02  -8.0519244041492750e-03  2.2812880325322352e-01  3.1969009022281053e-01  -5.7730067213027151e-09  9.8681034192891801e-02  3.3780857899297384e-01  5.3830889787012962e-02  2.3066109003944693e-02  1.4928630704997614e-02  -9.3886315159356193e-02  6.6883735069382488e-01  1.0740668494341547e-09  9.7754049993039572e-10  6.9590887817594538e-01  3.8127989314858751e-02  -1.3930718104332862e-01  6.2863710223446778e-02  3.9980122579711908e-01  5.4519888372488098e-03  2.5644801310625569e-02  5.1421736507157305e-02  5.2467244555070985e-02  1.8698406938724477e-02  6.4027440664092272e-02  -1.8884535248779391e-01  1.7023652412115196e-02  8.5718025699929173e-03  1.8929573923212466e-02  6.3931514405059853e-01  -1.8006088674704676e-01  6.6411566121310939e-01  3.6887007435768678e-02  3.7498808606263051e-01  -9.4968238272452016e-02  3.5452323642947495e-02  -2.9502448193032155e-01  -1.9706073576106937e-02  1.3998394176449710e-02  -3.3891076519954222e-01  -2.1540471718562101e-01  -9.4122236176749450e-03  -4.9659043183237497e-04  -2.0352560739519560e-01  -2.0540055173722796e-01  -2.2218704684351176e-01  -2.1039682488353048e-01  -1.1730939850645256e-01  3.4521077507393645e-02  -3.7319131063313582e-01  6.5583036217817886e-02  3.6999609617428160e-02  -3.0115591652729854e-03  5.7767936344443459e-02  -1.3300447282314692e-01  4.1471076850712781e-02  -1.3461423030360284e-01  -1.8695162760024883e-01  -1.2835980650014009e-01  1.7269904094222487e-02  -2.4439236241300108e-01  -2.1469204430363176e-01  5.4307094089739695e-02  -2.7553712567431349e-01  -2.4099156075801206e-01  4.7818697904120029e-02  1.0424700550574621e-02  5.2457518246157513e-02  -7.0890897781287349e-02  1.8945305643331457e-02  -3.4995900216638615e-01  -3.5565123787775699e-01  6.3685977154915335e-02  -3.6367397664425111e-01  9.0438856076847918e-01  4.3157905280007659e-02  8.3865115106862331e-01  2.3089687122695449e-02  -2.7657972765282048e-03  -4.2354501004606582e-02  4.1365958059889534e-03  1.1319492948669149e-02  1.3675485385048498e-02  -1.8256210688136834e-02  2.3490082398055803e-02  6.8932610250182269e-02  -1.5103611150761537e-01  -3.0184092708662164e-01  4.4636674445325306e-02  -9.5446718787367546e-02  2.1287232703435965e-02  3.8909507213957549e-02  1.2540461707631038e-02  6.9851727748557399e-02  6.2152360847769143e-02  -1.9166024367305645e-01  -2.0581816100177652e-01  6.9492871211768198e-02  5.6757027436946571e-02  5.3916181922376377e-02  4.4190974474140913e-03  4.4357869336654485e-03  4.1812602781780456e-01  -3.0014608464008924e-01  -3.9573155298807054e-02  6.2932311659689530e-02  4.3813713986776623e-02  3.6469918640447248e-02  -6.4626588644429064e-02  7.2816368328276482e-02  2.7871543774131684e-02  -4.9847087229062656e-02  -5.6808969296368082e-04  4.1903108736333357e-02  5.2762031928101881e-02  2.9315603661612255e-01  6.3301590591004736e-02  -2.1869458001973707e-01  -2.1768481132035825e-01  -1.7152667054534838e-02  2.8027150026298520e-01  1.5795506124460627e-02  -2.3601319983447944e-02  6.6186630848906622e-02  -2.3674840486136003e-01  2.9946240036589893e-02  1.1663118910175197e-02  6.8483393784690927e-02  6.6514112676098261e-02  -2.5443036052070483e-01  -1.6867297988367716e-01  2.3808913471573757e-02  1.9216469470388579e-02  1.0097325286016827e-02  2.5213578955792560e-02  -3.5989564529356911e-03  4.3230574584670733e-03  4.1434353780534899e-01  4.1387033129544663e-02  -1.5799936793827316e-01  -1.9815449933278800e-01  -1.3506793489737901e-01  2.3232543105888199e-02  -3.4101873088404772e-01  3.3972712394968123e-02  -6.2160469931130044e-02  3.7444702877720039e-02  3.3951603092025683e-02  2.9878264424275158e-02  -4.8756054803947492e-02  6.9383742885027522e-02  5.3543536952690297e-02  5.9143142008687775e-02  6.0066444140248976e-02  4.4999976655194324e-01  4.2097162977541508e-01  1.7901382696271534e-02  5.9331450957674656e-02  -9.8550389493887877e-02  -7.7390633785549404e-02  1.9830199917954951e-03  5.1226582224973777e-03  5.5316770394990178e-01  -2.5849108610727028e-01  6.9106036215798683e-01  -1.8265601245763621e-01  4.5971583349519965e-02  -7.0700136660501761e-02  -3.9510853383321796e-02  -2.6501568203856835e-01  6.3967957143435464e-02  7.6005271020200738e-01  -1.8631286905240727e-01  1.8447175815400670e-02  5.0863452506645174e-02  2.5044905804534617e-01  6.4442453013757464e-02  5.9375053925110322e-01  7.3730186387419988e-02  -1.2335006717607906e-01  5.0729558638968150e-02  2.5142296276123827e-02  5.1697308004089608e-02  2.4328764201351442e-02  4.2536308430607711e-02  3.4692786190900292e-02  7.0027860697840297e-03  5.6931108935633370e-02  4.1528592870819808e-02  -2.0418714474904121e-01  2.4932508462729430e-02  -1.9978177371228814e-01  -1.7623629055830570e-01  2.8094327688126707e-02  1.8512341271196848e-02  5.2690660423400082e-01  6.9617220911795785e-02  6.1966187358179887e-02  2.3121208352375525e-01  4.3356319561914797e-01  -3.4147590132200853e-02  4.9593971838374623e-01  6.8109915055366524e-02  -4.4725612662743830e-02  6.4138163968012876e-02  -2.1795954418439667e-01  6.7489078445505252e-02  4.1281342831249082e-02  -1.8110066814451783e-01  -8.0186924664331236e-02  1.5080235174578547e-02  1.9046028398485227e-02  2.4478177591147388e-02  1.0006246010380712e-02  -3.6855641646476776e-02  9.1259675908089265e-03  4.0590962804459337e-03  4.8081933698792906e-02  7.2596222153934756e-02  -3.4870764918163244e-01  4.9974942657306266e-02  -5.1162606456393754e-03  3.8704362296707664e-03  8.8079558415099964e-03  2.6826851356361224e-02  9.9816974882788977e-03  2.1647789732313912e-02  3.7623305586437471e-02  4.4208311782971951e-02  -8.4289716778145861e-03  -1.9877322988760779e-01  -1.9311164559441571e-01  9.4797325644455394e-02  -1.0161414692231947e-01  -1.1095476772746024e-01  -1.9349729626500717e-01  -1.7665302810371006e-01  1.3604819248864690e+00  -4.8965684973846159e-02  1.5205160747861751e-01  1.0360527364645204e-02  4.4683140780933826e-03  3.9718883072477056e-02  4.1237786979587333e-02  4.1489801069896373e-02  5.4936159677473808e-03  5.7437435160454388e-02  8.6354494957526905e-03  2.2748865119592780e-02  -3.4278774755179819e-01  -2.1200954383516296e-01  3.8255934543450845e-02  -3.3962323151900448e-01  -2.8499909974282173e-01  3.2233437945660894e-02  -2.8740521494953836e-01  -3.6335370740646417e-01  4.3155488374380747e-02  6.0253925519365967e-02  2.2800528367122826e-02  1.8844912072152008e-02  2.6419622836308627e-02  3.6029115937684521e-02  -2.4144436770906336e-01  -6.6067198633948398e-04  -4.3498828224814210e-04  3.5546622661231245e-03  3.1235064904028855e-02  3.2245473539764383e-02  3.6935152559311730e-03  1.1435505682864080e-02  5.2743677662226943e-02  5.8474623850574260e-02  5.0542248438447603e-02  -1.2757705150636536e-02  4.8609448258655055e-02  -1.3485889449488164e-01  -5.5288961843052660e-02  -6.4279788471290039e-02  4.6550740613884853e-02  1.8005734599173383e-02  3.6807260501546283e-03  -2.1656645983670005e-02  -1.8789269355670235e-01  -1.7686724247727598e-01  -1.4896341913559108e-01  3.8544422003655071e-01  1.0622391754351436e-01  -1.1687257344463153e-01  -2.0632980302977341e-01  -1.8011211482758499e-01  -9.1864422921916378e-02  -5.6686850694204503e-02  -1.2020433874329485e-01  -1.6401921067760386e-01  -1.5671828875746316e-01  3.3818689938987602e-02  6.5522938716158496e-02  2.6610939720364282e-02  2.8534796717974362e-02  1.8908204500724536e-02  2.6463675095690545e-02  -5.1100767367044046e-02  5.5472524274202482e-02  -1.5563203942226173e-01  2.0890361448365837e-02  3.2272167147459355e-02  1.8143033065616321e-02  1.5282105785083894e-02  6.0923156274334998e-02  1.8129074443278922e-02  -1.0963554357935629e-01  -7.8707051988647178e-02  -3.2741150757007836e-01  -3.5196136578048975e-01  -1.4764372701545517e-01  -6.1129050411757140e-03  3.7174726897455747e-02  3.7506540572012449e-02  2.3785070406469652e-02  3.8994865026108716e-01  1.1511742711530994e-02  6.6268474553075205e-02  5.7591745612647918e-02  -1.1204400140661243e-01  3.2051403171867048e-02  2.8300419170703028e-01  4.6996402593126520e-02  4.7388409327536962e-02  5.6450810036848369e-02  3.3842647263070166e-02  1.7318830478496954e-02  -1.3832622312142132e-01  5.5362804320925794e-02  -7.3802840102983991e-02  4.0730976942662145e-02  5.9943123357352260e-02  3.4555172864326154e-02  -1.5879712708993574e-01  3.0173501060475151e-02  6.1405640065089355e-02  7.3347002861303845e-01  -2.0595365658221007e-01  -1.8340677116951240e-03  6.7835735780620868e-02  -2.6483032450852700e-01  -5.7865441498942592e-02  1.5236407335204151e-02  1.2406282477257887e-02  4.8153762401653838e-02  7.9680047417479027e-01  3.2951870337826025e-02  1.6909860688137587e-02  3.0441419282171645e-02  3.1511183856375732e-02  3.6369197331798958e-01  1.2501258081850240e-02  3.2615881249862533e-01  -5.1646324081191596e-02  1.7643994711785734e-02  -3.6449571891971688e-01  -3.7915179638259588e-01  4.3958681205129094e-02  -3.6922235528045749e-01  -4.3494579775648357e-02  4.0490479782045306e-02  5.7716731534137873e-02  3.9717356203949727e-02  2.6313026105103502e-02  -1.6690911689981439e-02  3.4977741335225055e-03  -1.6935106407196497e-02  -6.1961195967675443e-02  6.5695198077677222e-02  -1.9747447304109703e-01  6.8298827015046998e-02  6.1657954857170190e-02  3.2082774124947609e-02  -7.1855603063512047e-02  -1.4196435432713508e-01  -1.1872165545143358e-01  -1.0865022875020819e-01  7.0316647616170923e-03  7.0913801785503050e-02  -2.8253187971409888e-01  -1.6279590981229297e-01  -1.8696229643891485e-01  7.0899966656721158e-02  5.7952679512359140e-01  6.5432466912117238e-02  -1.0173603693124436e-02  -1.1346364607798115e-01  3.1014761907064300e-02  -2.4513094454187676e-01  3.5913930689199181e-02  -3.4418923624063319e-01  1.9405992065378720e-02  -1.5677884421987878e-01  -1.8753291000044520e-01  -2.1995072731020016e-01  2.8474488955861320e-02  6.4054587676402033e-03  7.1664725462176740e-02  4.3400695099284528e-02  2.0020524745542046e-02  -8.9893598770759642e-02  1.1182752727513026e+00  5.1100748945419910e-02  -3.5423614023883700e-02  -3.0480546050872848e-01  3.5823483743768952e-02  3.0242269350403007e-02  5.9411289885167931e-02  6.8556402309040115e-02  4.5461342404736177e-02  4.0341562452728907e-02  1.1763074424849905e-02  7.2625695078077354e-02  2.4836686843174496e-02  -5.5147951731929178e-02  -5.3708158818741442e-02  4.5307973418227288e-01  4.5133881645474666e-01  6.5835647590598137e-02  -2.8454427751163652e-01  3.3122475316260655e-02  -7.7467139153685068e-04  1.1722611248707026e-02  -6.8413503177584059e-03  4.0290244265154568e-02  8.0570217835033361e-03  5.9831506910921650e-01  -3.6233501966723723e-02  6.9557821224636357e-02  6.5637257494009615e-02  2.3955721079156722e-01  -1.2705270724472500e-01  2.4218951289438108e-02  4.0851867943005417e-02  -2.7003510510222273e-01  -2.5342033581812090e-01  -3.5123285298706275e-01  2.8202150777076714e-02  3.9928835247556783e-02  -2.8563587708351551e-01  4.3573777374693518e-01  7.4692406881387030e-01  1.1030111062672061e-02  -1.4755797348323571e-01  4.0593112712165466e-02  3.2659411741351882e-02  6.2027335899522411e-02  3.5456446851304564e-02  2.6933152057952911e-09  -2.0175728455880945e-01  6.2509761412667758e-02  3.8658312510948074e-03  -2.0730738414583855e-01  -1.9841736708693156e-01  1.4925146291895515e-02  -1.4740562796500167e-01  3.8500158063900020e-01  3.6981818355964247e-01  3.3598581278797161e-02  4.3700107129529576e-02  5.2555342923574160e-02  5.5638297308028391e-02  6.1721279770551259e-02  6.1465658339693821e-02  3.6272964977948248e-02  -1.8791721746163459e-01  4.0046257882238590e-02  4.5376845701609589e-02  -5.9474291280021702e-03  -1.0354993771333277e-02  -6.8603845624077564e-02  -2.2747677494266352e-01  3.5902198748694381e-02  -1.3095764347155700e-01  3.9806221789698913e-02  -1.9731918982307075e-09  3.4495090053428240e-02  3.7793603398433240e-02  3.7364921553929599e-02  -1.5381831809471966e-01  5.1396699215956639e-02  1.9524194121076782e-03  -5.5374947435071786e-04  -1.3151694825747854e-02  -2.4105910643559075e-02  -2.8348215707517114e-02  2.1135835422889392e-02  -3.3306910163045461e-02  -2.2234915324276128e-02  -5.0255698835280270e-02  6.4704556487474515e-02  6.5241382823542526e-02  -4.0899780281685914e-02  3.9065062366328013e-01  -3.3054815435899547e-02  4.8318157705639096e-02  -4.8254297237816220e-02  6.9661689507321597e-03  7.6782369405847426e-03  3.2064643898067125e-03  -2.2241139241366428e-01  3.6319511070215124e-02  2.3368679551359968e-02  1.6494146935184639e-02  -2.4819029486022162e-01  2.5946745917935218e-02  5.0660209364941165e-02  4.6347093661708083e-02  -2.0816865414600544e-01  -2.2105486653058562e-01  6.5525116561406041e-02  -2.0726362007898547e-01  -2.3255398511698433e-01  -2.3220683071758974e-01  1.7265806179564122e-02  2.6712918115513278e-02  3.8893760614889743e-02  -4.2366516047597824e-01  2.5722972945658115e-02  -1.4382454582852339e-01  2.4093992870777656e-02  3.1545077028798413e-01  -1.3902794927826768e-02  1.6198294090891494e-02  -1.1108713289659115e-01  2.6933152057952911e-09  1.0741667322911506e+00  8.7434219663286639e-01  -2.4797526006949247e-02  -6.7734008323515782e-02  -1.4976305208672425e-01  7.0602983478331383e-02  7.0477192450162970e-02  -1.3161113567901261e-01  3.0797173919513803e-02  -1.7818393909283628e-01  5.1799105204441553e-01  4.6342300147403354e-01  4.6795214795977225e-01  2.8574136323053504e-02  1.2159486234982400e-02  6.5963214761018893e-02  6.7501569434258654e-02  6.6490231550521209e-02  4.1760706223970732e-02  5.2654939103378640e-01  3.5791749023513758e-02  -3.8200761029893332e-01  6.2630813748111080e-02  4.2734498777143887e-02  4.7093535343437479e-02  3.0474832432837818e-02  2.9122595158919830e-02  -2.0120461543565502e-01  5.4047575737825121e-02  -1.9672413969679869e-01  