<?xml version="1.0"?>
<VTKFile type="UnstructuredGrid"  version="0.1"  >
<UnstructuredGrid>
<Piece  NumberOfPoints="2426" NumberOfCells="4534">
<Points>
<DataArray  type="Float64"  NumberOfComponents="3"  format="ascii">0 0.41 0  0 0 0  2.2 0 0  2.2 0.41 0  0.2404508497187474 0.2293892626146237 0  0.25 0.2 0  0.2404508497187474 0.1706107373853764 0  0.2154508497187474 0.1524471741852423 0  0.1845491502812526 0.1524471741852423 0  0.1595491502812526 0.1706107373853764 0  0.15 0.2 0  0.1595491502812526 0.2293892626146237 0  0.1845491502812527 0.2475528258147577 0  0.2154508497187474 0.2475528258147577 0  0.5404508497187474 0.2293892626146237 0  0.55 0.2 0  0.5404508497187474 0.1706107373853764 0  0.5154508497187473 0.1524471741852423 0  0.4845491502812526 0.1524471741852423 0  0.4595491502812526 0.1706107373853764 0  0.45 0.2 0  0.4595491502812526 0.2293892626146237 0  0.4845491502812526 0.2475528258147577 0  0.5154508497187473 0.2475528258147577 0  1.1 0 0  0 0.205 0  1.1 0.41 0  0.55 0 0  0.55 0.41 0  0.275 0 0  0.275 0.41 0  1.65 0.41 0  1.65 0 0  1.375 0 0  1.375 0.41 0  1.925 0 0  1.925 0.41 0  0.8250000000000001 0.41 0  0.8250000000000001 0 0  1.5125 0.205 0  1.7875 0.205 0  0.9625000000000001 0.205 0  1.2375 0.205 0  2.2 0.205 0  0.7560964076246335 0.2151713709677419 0  1.99375 0.2152743902439024 0  2.0625 0 0  0.6875 0 0  2.0625 0.41 0  2.2 0.3075 0  0.6875 0.41 0  1.7875 0.41 0  1.375 0.1486128048780488 0  1.5125 0 0  1.7875 0 0  1.5125 0.41 0  0.9625000000000001 0 0  0.9625000000000001 0.41 0  0.4125 0 0  0.1375 0 0  0.1375 0.41 0  0.4125 0.41 0  1.2375 0 0  1.1 0.1486128048780487 0  1.2375 0.41 0  1.65 0.1486128048780487 0  1.126715909090909 0.2793064024390244 0  1.676715909090909 0.2793064024390244 0  1.348284090909091 0.2793064024390244 0  0.34375 0.3032389320646208 0  1.894702181800738 0.1282910975492754 0  2.092797818199262 0.1282910975492754 0  1.85625 0.3075 0  0.8630851210521902 0.286932093388664 0  0.89375 0.1025 0  0.35 0.1090282786671641 0  0 0.3075 0  0 0.1025 0  0.6526217841291382 0.288229645480046 0  0.7562500000000001 0.09660248895515888 0  0.6568633732316684 0.1557582854763441 0  2.099172119769978 0.25625 0  1.002356446954348 0.1010393851523063 0  1.99375 0.08395950269330846 0  1.459960956013612 0.3075 0  1.569025960719943 0.2986889805672169 0  1.03125 0.3278689922742084 0  0.75625 0.3247156761655783 0  1.959375 0.3126371951219512 0  1.749222215368287 0.1025 0  1.275777784631713 0.1025 0  2.2 0.1025 0  1.225938124459196 0.3075 0  1.550777784631713 0.1025 0  1.44375 0.07430640243902442 0  1.16875 0.07430640243902437 0  0.3528655045338512 0.2063263890916129 0  0.5890337614812103 0.08775733857679162 0  0.8504912436891263 0.190072835691683 0  1.899250267340833 0.2229966846119207 0  0.1020898364287272 0.3140258291809757 0  1.766482954545455 0.2934032012195123 0  1.051658316544432 0.2265720188842194 0  0.2 0.3400647632937836 0  1.421109702350723 0.2261157654379721 0  0.4812500000000001 0.41 0  0.4324401666997539 0.3216425986889796 0  0.098916018031319 0.09171660955420841 0  0.9508742791313441 0.2921736960864468 0  2.13125 0 0  2.118919042110979 0.3422084711244843 0  1.30625 0.41 0  0.20625 0 0  1.597888256393107 0.2173787389261347 0  0.4812500000000001 0 0  0.4324082967851086 0.08384041677422771 0  1.829299675393195 0.07400700849299596 0  0.568219932524165 0.3212274660843853 0  1.71875 0.41 0  0.268005226542646 0.08512186835670006 0  1.16875 0.41 0  2.038220665644273 0.332420740103091 0  0.6678017527842831 0.07701763866051195 0  0.89375 0.41 0  0.5111435174287687 0.07335351331957608 0  0.176193934632343 0.0734896648625108 0  0.07390688010811153 0.1697064032433452 0  0.05452951551825875 0.25625 0  0.61875 0.41 0  1.452769549894695 0.1548122580621249 0  1.369219062229598 0.07430640243902442 0  1.30625 0 0  1.720943423819132 0.1714577452753128 0  1.157188124459196 0.205 0  1.094219062229598 0.07430640243902437 0  1.304056576180868 0.1714577452753128 0  1.67579304192913 0.07430640243902437 0  0.2672907219039591 0.3037570723459566 0  1.209670467133757 0.1362100266964769 0  1.58125 0 0  1.03125 0 0  0.06875000000000001 0.41 0  0 0.35875 0  1.58125 0.41 0  1.631724228912893 0.3381867502687533 0  0.8240147050827157 0.1225233169495944 0  1.825608881788174 0.14499488549201 0  1.85625 0 0  1.44375 0 0  1.44375 0.41 0  1.85625 0.41 0  2.13125 0.41 0  0.7562500000000001 0.41 0  0.7562500000000001 0 0  0.89375 0 0  0.34375 0 0  0.34375 0.41 0  0.20625 0.41 0  0.06875000000000001 0 0  1.16875 0 0  1.03125 0.41 0  0.61875 0 0  1.71875 0 0  1.99375 0 0  1.99375 0.41 0  0.3972301426712326 0.2593842555611471 0  1.340625 0.3489494290853124 0  1.134375 0.3489494290853123 0  1.700180620188976 0.3438659752031281 0  0.5003922072260507 0.341765274319271 0  0.6212513815748759 0.2209216137134851 0  0.6885607720119526 0.215393731583638 0  1.033412357328477 0.1612902025713047 0  2.135782184673599 0.07126652247502523 0  1.668441847249787 0.2129203728327609 0  1.295782514339747 0.2378437748815763 0  1.409375 0.3520314716057996 0  2.129248544730567 0.1906135162504124 0  2.060771381434487 0.1989445750470348 0  2.013252586573865 0.1496169464686054 0  1.942766402200229 0.1734448904596831 0  1.895522487186454 0.06076163953489683 0  2.069553871656643 0.06605731020975725 0  0.9281250000000001 0.3539050257418612 0  1.274680914880868 0.3520219391081363 0  0.3030138498135347 0.2488370856812789 0  0.8223773249563684 0.341761430177996 0  0.9018164060227267 0.2326477848736739 0  0.8143027982392851 0.2440265179987191 0  0.7225087161029304 0.2699907246386231 0  1.614713220494657 0.09473434380863296 0  0.378125 0.3566194660323104 0  0.309375 0.3566194660323104 0  1.72990325744076 0.2380068107952482 0  0.6915936999299305 0.3429472631234433 0  0.6268087624932918 0.3466455500035671 0  1.356580098625191 0.2120393231351682 0  0.3060160055995138 0.1590148921620778 0  0.3954648733249218 0.156380553890791 0  2.034370752044885 0.2668681600792073 0  1.51768709249349 0.3426260931494756 0  1.561883724969884 0.1650446847858835 0  1.197344062229598 0.2523725417393646 0  0.9281250000000001 0.05124999999999999 0  1.804085235518364 0.3468178408964637 0  1.817887819205233 0.2589243285818559 0  0.9107805776841645 0.1653834539923287 0  1.905897727272727 0.3485060975609756 0  0 0.05125 0  0.844212276491354 0.0614201194265309 0  0.378125 0.05244637078450034 0  1.008571329007178 0.2705955969954818 0  0.7724048032149464 0.1559079561351474 0  0.7203054377831548 0.04941826955193545 0  1.192836486056382 0.3562350748565544 0  0.5967108020713719 0.1479294686523888 0  1.28257088594801 0.2944411014911587 0  0.7041890234548132 0.1222025174424443 0  1.474860187679412 0.2504218616229368 0  1.406767003493824 0.2829282258560709 0  0.3201325899091991 0.05890121548989159 0  0.5979220912872258 0.2727591995766724 0  1.845656689180403 0.1998310418452388 0  2.144958525570388 0.2909790873294231 0  2.2 0.15375 0  1.57794966442982 0.3540357145964566 0  0.9483181579620558 0.1214693369582054 0  0.0496154796471391 0.333125 0  1.508991196088596 0.1421783375065625 0  0.09776612425612034 0.2204896805326566 0  1.50436820029908 0.06143401634903343 0  1.223857000523521 0.0823554862453532 0  0.2531953886959507 0.3582003209055908 0  1.153316824384777 0.1289850171317837 0  2.148922302309752 0.1258841779285271 0  1.621993280276081 0.2841214267927899 0  1.550118654119087 0.2461998729100966 0  1.327182649291491 0.1216967252533594 0  1.753125 0.04556020050186112 0  1.271875 0.04556020050186116 0  0.9824282234771738 0.05051969257615314 0  1.039510847866381 0.05683351822678641 0  1.94956388244759 0.1180512551534177 0  1.949997712993411 0.04965831614304109 0  1.771961817615021 0.1530278789497521 0  1.909246823951428 0.2812757146784527 0  1.101974016627944 0.2038045618205013 0  0.7906250000000001 0.0444674049654372 0  1.948575539857022 0.2445328248721197 0  1.697271520964565 0.1233917627620729 0  1.065625 0.3689344961371042 0  1.085849084308977 0.3170853572226867 0  0.9840604787624379 0.3582077516409966 0  1.577403511714593 0.05463601888079143 0  0.05622663515370135 0.05493816910862376 0  0.8762396958822678 0.3392249777398821 0  1.751571320346033 0.3651102912045228 0  1.055327852410105 0.111864799513911 0  0.1583785085108421 0.2994699345738728 0  0.1455283439499995 0.3542795598723423 0  2.2 0.35875 0  0.225705107073232 0.05084786997482401 0  0.1455852234589313 0.1166494778469164 0  1.466879772203159 0.3611261772912453 0  1.990280163552011 0.3564754268533217 0  1.17471064520912 0.2990917256188288 0  0.7221925551074015 0.1739659241003985 0  0 0.25625 0  2.2 0.25625 0  2.2 0.05125 0  0 0.15375 0  1.853978576207987 0.35875 0  0.21965520498276 0.1015543880164422 0  1.515638456102889 0.2882700110184686 0  0.09048297387599738 0.3637717362208066 0  2.150453692751374 0.2387066338105111 0  1.323782677156475 0.04897634338873398 0  1.409375 0.03715320121951221 0  1.406484531114799 0.1087852750766809 0  1.134375 0.03715320121951218 0  1.627401732573545 0.04552157221025036 0  0.446875 0.3713289093361426 0  2.045405893604797 0.1105340662939892 0  1.255408269734577 0.1577307500159216 0  2.028125 0.03707597992059326 0  0.04420832937638274 0.128125 0  0.5817551710628505 0.3702615006034757 0  0.1197849154434487 0.2663398672460083 0  1.248258025468107 0.2565907092181813 0  0.1300647302703173 0.0508462728378621 0  0.7738123537510222 0.2761231499240648 0  1.203125 0.0366132337404304 0  0.5444207041612499 0.111205399508622 0  0.8016457771828226 0.1964238426015905 0  2.072662025974815 0.2975086504196739 0  0.4019040438866802 0.2103993403217561 0  0.4677372330974851 0.04827477407630658 0  0.8677218578847617 0.1432970430140788 0  1.058011122005847 0.2758866204059919 0  0.4429405887974043 0.2746184809910084 0  0.5843750000000001 0.03726989681835222 0  0.6318596133730142 0.1128692182767254 0  0.4862628454464408 0.2957029785303028 0  0.7805186758662764 0.3673578380827891 0  1.887722846421017 0.1760882698830035 0  0.3498893058880703 0.256189258793856 0  1.472640588990488 0.1118278026240017 0  1.865937103925594 0.2604137786483804 0
[...]
<PointData  Scalars="f_43"> 
<DataArray  type="Float64"  Name="f_43"  format="ascii">4.2270413065413392e-01  4.5207015052533445e-01  -3.5482370600854923e-09  3.6190540111767038e-09  -3.6080706591183009e-01  -3.2601205948469930e-01  -3.5024202039571367e-01  -5.1793221328528927e-01  -9.3557696854929506e-01  8.6103455134709350e-01  1.9959832600430396e+00  4.0090232222011796e-01  -1.1567711625665493e+00  -5.0749818715175965e-01  -2.8021934961060069e-01  -2.5545620603402924e-01  -2.8986764350730337e-01  -4.5416026337528492e-01  -1.2901929694454459e-01  -1.0676632308824086e-01  -2.9393765507577624e-01  -1.4503833715691405e-01  -7.2808073932970244e-02  -5.2954939203385387e-01  1.4391475417441162e-02  7.6426707457272158e-01  -3.8596326963633035e-02  -1.9770188676459849e-01  -2.0223946448029831e-01  -1.2521463874647497e-03  2.1253791817126996e-02  4.2361290482952264e-02  2.8899555676948258e-02  4.1358893196039850e-03  2.6495362332736413e-02  1.6011928678279899e-02  1.5345790999979297e-02  -8.2320200865049473e-02  -9.4014953331055931e-02  2.7513053587204495e-03  2.1316539524980138e-02  1.1981313101023785e-02  1.2545492452884232e-02  -5.3124351083014651e-10  -6.7218497119853657e-02  1.6075476028239791e-02  1.1229886696657710e-02  -1.4449815497540874e-01  1.7659260259343078e-02  3.6611032984882748e-10  -1.5411470882209469e-01  2.9138546617306652e-02  1.0881373392745376e-02  3.2307158424628966e-02  3.0450220521783557e-02  -1.2325390933584088e-03  -5.2057780548421154e-02  -3.1061044013654875e-02  -1.9281054947708703e-01  3.6869879139448281e-01  3.4757372234569128e-01  -1.7799729680750148e-01  -3.3945568262183758e-03  2.6177693159310438e-02  1.4293685611518359e-02  1.9996721760218085e-02  -2.0498178554517264e-02  4.1826946410861078e-02  3.2169337803932586e-02  -2.5546275655545059e-01  2.1605174384699215e-02  1.0684439981415411e-02  1.0761647833559911e-02  -9.7187477144937331e-03  -5.4890849648864599e-02  -2.9751531010434518e-01  5.1921038249028550e-01  5.5210322452278315e-01  -2.0018867771465246e-01  -9.8307498700478696e-02  -1.8853071434632607e-01  9.0578044154740779e-03  -1.4909922188117913e-02  7.8703674464711635e-03  3.6662226831126045e-03  6.6926494135593831e-03  -3.1099405216938974e-02  -1.0774047274382990e-01  1.8958660479080878e-02  2.5351099200266399e-02  -1.2772190746869248e-02  1.9795102314756728e-09  1.0902003040122697e-02  3.2801330420872528e-02  2.6824700156007537e-02  2.0080079875032394e-02  -3.5508797801013248e-01  -2.1496450358253238e-01  -9.4277806497653546e-03  1.5875056074668062e-02  4.6276805299250173e-01  3.1752256508734887e-02  -2.2514404366724992e-02  1.5146152107393468e-01  1.7722838141895778e-02  -2.0216040864852286e-01  -2.1836211082254472e-01  4.9059313813278344e-01  -7.8731775393548510e-03  8.5753387035342049e-03  9.3854298240856910e-03  3.3504767830858428e-02  1.9623033206183371e-01  2.3509700021134224e-02  -2.0506022892994891e-01  -2.1102554359320377e-01  3.0970482165269507e-02  -2.2751594928591271e-01  4.6235270204538922e-02  -1.5105892713587038e-01  -1.8884367792370051e-02  2.1545019199300807e-02  -1.5525744841805234e-01  -4.7965904624447837e-02  -2.1903877395520430e-01  2.1292990185690408e-01  8.9650324650053714e-01  7.1960539077321395e-01  -1.8355084182594916e-01  2.7427558201953816e-02  -2.1312378520992764e-03  -1.0815981666301147e-02  1.6827213835582829e-02  3.9905258751557239e-03  1.9232238556890800e-02  -9.7996793078719904e-03  2.5894732134982959e-02  -1.8613913039044613e-01  6.3037318753174625e-03  3.1036487147972979e-02  -1.3037867112135979e-02  4.1054628055805970e-01  4.3486749960079885e-01  1.6950669723663728e-02  3.6147051169893425e-02  -5.9316204712341239e-02  2.9015368166961739e-02  2.5974195862627544e-02  2.4827197629966793e-02  6.5623108460291235e-03  1.3914753880589593e-02  8.0485589058511518e-03  -1.1994205670585108e-01  -1.1439970029590331e-01  -7.8580528343585324e-02  -1.3849228155276638e-01  -1.0772726979980533e-01  1.9763098527318021e-01  4.3774104672999553e-01  1.4524730336532760e-02  -3.5434583187721302e-02  -1.7367233679153496e-01  2.8530155085259572e-02  1.0542577049313681e-02  2.1414930111614165e-02  -3.4425104022394254e-01  3.7200320969569114e-02  -3.6685794488121391e-02  5.1639533845272208e-02  -2.1621091775448156e-01  -2.4639483090708564e-01  -1.6553181875974171e-01  2.1731590156054789e-02  9.2967906230379087e-03  3.2583518519468391e-02  2.7489174830098440e-02  1.8307413311035511e-02  6.2165498180408677e-03  1.1479041544101320e-02  9.7113391729756905e-03  1.3615014674088840e-02  2.0978550921747906e-02  1.1196506306928951e-02  -3.0478219724163973e-02  3.0707753472286530e-02  -3.5076555246463631e-01  -7.3814222609355704e-02  3.1963654711373184e-02  -1.5204391001841694e-04  -1.2443962114050870e-01  3.0054391325386950e-02  -1.6836266100062952e-01  -8.4233399381360638e-02  3.4326134095620499e-02  -1.5110504486927975e-01  -1.8545283626687439e-01  1.2640638497363254e-02  -3.5380296356352309e-01  -3.6813656798261141e-01  1.7890780089644537e-02  -7.6393756000449984e-03  2.8201272326339819e-02  1.6228161104890428e-02  -6.7907223900401020e-02  2.3652522653641796e-02  1.1555535034910283e-02  -1.0201820272670883e-02  1.0430929860935165e-02  4.6500974032164050e-01  -8.4706729668146838e-02  -1.8945382279315207e-01  -1.8438089949055173e-02  -5.8897565471567728e-02  -1.2475963920969468e-01  -9.8358598297773360e-03  -2.5084603761676894e-01  3.0904108106137029e-02  -1.2671484840380670e-01  -2.1124742712682761e-03  2.1426485329188852e-02  -1.3391949507747383e-01  -2.5372554771345501e-01  1.4774731286033250e-02  4.8813814278447099e-03  2.2068805528601543e-09  1.1079175837682115e-02  -2.2459901961212600e-02  4.5826296987219389e-01  3.1753182881374360e-02  1.1165567115890176e+00  3.3576150438248749e-02  1.8862365743611508e-03  3.1335858696673713e-02  2.0619297886022587e-02  6.3712404770427710e-03  3.1159646186449518e-02  6.6298579666577064e-03  -8.9679938544124788e-03  2.9025749445966760e-02  -1.2953168078354914e-02  -4.1981951720512459e-02  -6.8872018288542464e-03  1.2983763811916243e-02  1.1995113789092430e-02  2.8012347789760431e-02  1.5597886154012464e-02  -8.5871752371646914e-03  -9.8912272031366238e-02  2.3053767958654988e-02  2.0737634310927313e-02  -4.0165832989549503e-02  -3.9027585823453295e-02  -2.6425829833108337e-02  3.1054934964403636e-02  4.5818063434832124e-01  -4.4586706937309740e-02  4.1125620164656228e-02  1.1744888749525497e-02  2.3072289173851596e-01  3.2197015455439681e-01  -4.8012652112219983e-09  9.7890973997507832e-02  3.3637094703671405e-01  -8.3348326355083685e-04  2.2520972563246706e-02  -1.1948742755705644e-02  -9.7009674556551878e-02  6.7026381805158508e-01  3.6611032984882748e-10  -9.1032626199108394e-09  6.9590507806144264e-01  1.1471762574583126e-02  -1.4137599297295650e-01  -3.5935452735289114e-03  4.0191203426466421e-01  2.0664177406328069e-03  -1.3851540078193980e-02  1.5394928663915047e-02  1.4363204737739022e-02  2.0646945699420546e-02  2.9183785133823768e-02  -1.9471636893471667e-01  8.9834036631976626e-03  -7.6009541738106933e-03  9.8713630348527762e-03  6.3900177667005609e-01  -1.9574968315799260e-01  6.6624754754345172e-01  2.7184882573203308e-02  3.7427126040468561e-01  -6.2263170040452211e-02  7.2698776212456922e-03  -2.7494170794901124e-01  -2.2608386673479652e-02  1.5558193859059571e-02  -3.3582293656264817e-01  -2.0326867877182592e-01  -3.4335561045042373e-02  -2.7923377209722575e-02  -2.2231726019306527e-01  -1.8749507854228370e-01  -1.9972922126876053e-01  -2.2732827809255121e-01  -1.0456605913191329e-01  2.0321175403784839e-02  -3.5623799288969560e-01  3.0476773401572035e-02  1.1628993078472209e-02  9.4999861061706888e-03  1.1180691058759473e-02  -1.2973948376304842e-01  3.0624002088804773e-02  -1.3733643584784186e-01  -1.6902083518663633e-01  -1.2949326515294662e-01  3.2472977386902671e-03  -2.1940995246919084e-01  -1.9540802713648936e-01  3.9483969092632208e-02  -2.9310757458643111e-01  -2.4202511794136589e-01  2.3388228567036224e-02  1.1154380761223569e-02  1.4985423781601026e-02  -3.6152324673791807e-02  2.0972724516118951e-02  -3.4635043811102162e-01  -3.6026451382293762e-01  3.0331278533644097e-02  -3.6389190247821313e-01  9.0364704990668165e-01  2.0252575258421102e-02  8.3942676799710803e-01  2.1432303403008692e-02  2.8407835857811155e-02  -1.4560636986993208e-02  3.1255332500329772e-03  1.2914982588991519e-02  1.6391139082529257e-02  -1.8958845946392220e-02  2.7426731346661625e-03  3.0852031418396337e-02  -1.6420606923504158e-01  -2.8699415300831677e-01  2.9087226709133527e-02  -6.4009126659903395e-02  2.1540532737689078e-02  2.7658028288082871e-02  1.3388418326377714e-02  3.0270467776097980e-02  2.6321186417397672e-02  -2.0552954433527026e-01  -1.9745809605172654e-01  5.0202537785323260e-03  2.8204280246529597e-02  2.7057734827531328e-02  5.7682361712948181e-03  4.2028356318185925e-03  4.2021040994434350e-01  -3.0586631224923938e-01  -3.9548467155430818e-02  3.7788595270280466e-02  3.0986958716662547e-02  2.6494782932534908e-02  -8.5135062644044510e-02  3.1951969482851020e-02  1.7377832741048163e-02  -7.8088353410691008e-02  -2.2395724667958368e-02  2.0066978827371993e-02  4.4695148408986404e-02  2.9239354930185502e-01  4.6816170295533199e-02  -2.0396913523997531e-01  -2.0114599329450478e-01  8.9352415867812469e-03  2.8263811525497828e-01  1.1588194461742090e-02  -3.3348239463919509e-02  9.0096888819541417e-03  -2.5280685536604725e-01  1.3004583000758678e-02  1.0729274691866296e-02  3.0451714403877610e-02  2.3126400955781931e-02  -2.6847745596602179e-01  -1.8214232127899946e-01  1.5429173146504533e-02  2.4444381803531975e-02  6.7994523931405929e-04  1.7028737154547894e-02  2.6549711819921600e-03  4.2522629246562861e-03  4.1371079752952850e-01  3.6988419140849306e-02  -1.4391118871716665e-01  -2.1529436832632651e-01  -1.3338535303807564e-01  9.2491954787019930e-03  -3.3748954617576787e-01  1.2736524343455076e-02  -8.6734017920639381e-02  2.6725599605257236e-02  2.1110661138247246e-02  1.5797343964616593e-02  -4.8728505360342983e-02  3.3127643585083938e-02  2.3840486520586394e-02  2.7821189700186471e-02  2.5452216714883517e-02  4.4939443762884768e-01  4.2305442100591850e-01  2.0862285084758875e-02  2.1856116565815525e-02  -6.6571553544307605e-02  -7.6343818804660915e-02  -3.7091405816725827e-02  1.0667275622375372e-02  5.5505752950885201e-01  -2.3556848461884330e-01  6.9058564821332236e-01  -1.7681005396504065e-01  2.9665044020153138e-02  -9.1273054485424721e-02  -2.0148171463588872e-02  -2.5872611888553038e-01  2.2887121581114955e-02  7.6015965014735787e-01  -1.8883572977594820e-01  8.5010455123724626e-03  8.7711165358330869e-03  2.5288302268193003e-01  -4.2666141219314634e-03  5.9545824472977771e-01  3.2298394661792393e-02  -1.2135340056883449e-01  2.3501621121289385e-02  3.8156430074940484e-03  2.2729704763433209e-02  -1.0561289424480896e-02  8.0524776584302489e-04  -2.5827652060232196e-03  2.0241855814344633e-02  1.4250639538968065e-02  -7.7789975451211574e-04  -1.9477291831891003e-01  9.6880425787968967e-03  -2.2751968824582416e-01  -1.6031471479660619e-01  1.3606859415546561e-02  -3.6064496920935338e-03  5.2636180113625552e-01  2.0237560364986834e-02  4.6160860256737192e-02  2.3043852655599831e-01  4.3292391625419824e-01  -3.1681132725310139e-02  4.9539072252859451e-01  3.4928262381378521e-02  -7.4120354891920023e-02  2.5336736866128810e-02  -2.0381657884303928e-01  -1.6151015834459834e-03  2.9341804830738040e-02  -1.6547857613180636e-01  -4.5077526785891747e-02  1.3677786610457338e-02  1.6763561025437648e-02  -1.7623295075389827e-02  1.0027631605530742e-02  -6.5927346929747582e-02  6.0370015726495417e-03  1.8810181430198431e-03  3.4764636378665809e-02  3.2495015650753079e-02  -3.4423640083989077e-01  1.4418741065077637e-02  -4.2579107546315338e-02  5.1676145095883065e-03  9.8453864592013326e-03  1.7320355592415747e-02  1.1251826216387482e-02  1.4981613645427917e-02  2.6316422331523009e-02  2.7473909658286395e-02  -5.1712930806002665e-03  -2.0832934547844351e-01  -2.0242594562742550e-01  9.4323930286333277e-02  -7.8682075343098998e-02  -1.1167732828734456e-01  -2.0534716293287628e-01  -1.7903785422529087e-01  1.3607040585356884e+00  -2.3927515270980245e-02  1.5474146072178871e-01  -2.4833310268536631e-02  -3.1610326303187164e-02  3.5822672588721183e-02  3.2519316567284733e-02  2.8661404759182340e-02  -3.0887709952014990e-02  2.0008582779821680e-02  8.7574674796752853e-03  -1.9376448755915750e-03  -3.2542330000435216e-01  -2.0244750886241822e-01  2.4998982336129606e-02  -3.4241797324128714e-01  -2.6483349469990047e-01  -3.9982543922410275e-03  -3.0155993953638027e-01  -3.5552859377788953e-01  2.0008953487401684e-02  4.7529131470641771e-02  9.3859170334739932e-03  1.0425038723769981e-02  2.0800526907830293e-02  2.6522677294667400e-02  -2.2323745867677727e-01  -3.7698114349311813e-02  -2.8065542318432887e-02  -8.7530788377843342e-03  1.6440431499716347e-02  -5.8624662215267772e-03  4.6138091324460610e-03  1.0975984820066191e-02  1.5606649421037544e-02  -5.8924607718778825e-04  3.9140905602185971e-02  -3.9088567650760388e-02  2.9575895532070837e-02  -1.2844290010627984e-01  -6.7110351453788145e-02  -3.6725888741570033e-02  1.6418786423585793e-02  1.8183502920745415e-02  3.6613324582184170e-03  3.8930151682766748e-03  -1.9356708632551783e-01  -1.7228035006922854e-01  -1.4920580800379346e-01  3.8756888548422841e-01  1.0897649704191535e-01  -1.0128296274349592e-01  -1.8878182935045321e-01  -1.9536693017798915e-01  -1.0296511152718017e-01  -5.4240245952632681e-02  -1.1829359533077495e-01  -1.6052320924323310e-01  -1.6979891157767077e-01  6.0324643825512541e-03  2.9964894109318397e-02  1.2358137417256620e-02  -1.0064625646342765e-02  1.0549832073706371e-02  1.9102459772859078e-02  -3.2619607608201713e-02  4.8025820562337798e-02  -1.6389030085631953e-01  8.3188689225811348e-03  2.3752960162267352e-02  1.0326438807646063e-02  1.0477864609306171e-02  2.5191709270251505e-02  1.9890775954778599e-02  -8.6792780313748263e-02  -4.5298588791367417e-02  -3.2130264999039965e-01  -3.3769896540315314e-01  -1.3634906093655894e-01  9.2102462073340649e-03  2.9430241886156221e-02  3.2512142899237602e-02  -8.1719525319072558e-03  3.8905919527785149e-01  -2.2591156238475168e-02  -4.9669387623014101e-03  -6.0487354358764673e-03  -1.1161455416761611e-01  1.8483536502605209e-02  2.8590596115445116e-01  7.2261830328603565e-03  1.1733871600609007e-02  4.0383212258536048e-02  8.8272337005379214e-03  2.2975938873786156e-02  -1.4624023422483551e-01  2.6201047653965762e-02  -6.9925148370946905e-02  2.9325857649042577e-02  4.1051733174447054e-02  4.3845781227667456e-03  -1.7201940870158702e-01  1.3515459642297103e-02  -3.0666899790554006e-03  7.3455838878468838e-01  -1.8669706188898871e-01  1.8975165491650195e-02  3.0299461652098288e-02  -2.7404338623326402e-01  -8.4622531294693076e-02  1.1164905694553006e-02  1.0937206062722868e-02  7.2109390264302065e-03  7.9844118654593532e-01  1.9426081399390754e-02  3.7046248538675454e-03  1.7261030722028288e-02  1.7985693776506270e-02  3.6586031154563925e-01  1.4734438500886265e-02  3.2543284026813196e-01  -2.9613008638735516e-02  1.9540800906843542e-02  -3.5832321716855980e-01  -3.6602419283573118e-01  2.4284334547853722e-02  -3.5542477518964194e-01  -5.9274276988395186e-02  1.4483040103559197e-02  4.5946265307020645e-02  7.2848359487062185e-03  1.0534080926966619e-02  -2.9650043979748800e-02  1.9594538529760447e-03  5.1610735422407709e-03  -2.8142724442672195e-02  3.3484156942120369e-02  -2.0039943747487698e-01  3.1688495167803893e-02  2.8228848652285185e-02  1.2675161390828004e-02  -9.2257305185069596e-02  -1.4326306749223994e-01  -1.0212236609571765e-01  -7.9787073759632746e-02  1.1305189500094338e-02  8.6722001619368577e-03  -2.6385145113228342e-01  -1.7796292637810171e-01  -2.0333221938102938e-01  2.1522104298823379e-02  5.7865639681909620e-01  1.8448341239069493e-02  -7.2131573252076737e-03  -1.1165767423751986e-01  -1.1086187743365417e-02  -2.3825093989124421e-01  1.1760072077343930e-02  -3.5239413597957864e-01  2.3325581864785561e-02  -1.5325168451932539e-01  -1.8183739254158554e-01  -2.1082660826602012e-01  1.5972021673677481e-02  3.5301511170564431e-03  3.1356929157920328e-02  1.2297555800647102e-02  -5.7359291547499870e-03  -9.9295618742028038e-02  1.1202839636085933e+00  3.2534892550958920e-02  3.2296789531226040e-03  -3.2560434971586133e-01  2.3124199418281977e-02  1.7146167696520460e-02  1.9953960025860983e-02  3.2479891942314772e-02  2.0988701583238900e-02  1.3142265147489757e-02  9.4493560362262450e-03  3.2067648441893172e-02  2.0575420298645015e-02  -6.0943923357170179e-02  -7.6476480255843027e-02  4.5247129664167607e-01  4.5073158437970889e-01  3.3175184135900065e-02  -2.7629350067630487e-01  2.1524681383389876e-02  -1.1044709678913654e-02  -2.3155554406687633e-02  -2.3353680123814044e-02  3.5329286771539549e-02  -1.7622802024175939e-02  6.0026525517190799e-01  -4.7234690730882101e-02  -1.7672530687665895e-03  6.8455352526919769e-02  2.4203660473786126e-01  -1.2391272201755690e-01  1.0039235080960985e-02  3.3729356785129519e-02  -2.4858519660000675e-01  -2.2187116391354203e-01  -3.5327959818663218e-01  -1.0315105640895873e-02  1.5998128122547164e-02  -2.6783448576259589e-01  4.3512458860573855e-01  7.4810157937512178e-01  1.1844382556096317e-02  -1.3836899675086267e-01  3.0104747487158037e-02  2.3547485807310448e-02  2.6160901774632341e-02  1.2209010915981054e-02  -5.3124351083014651e-10  -2.1602722797948265e-01  3.9231386651076033e-02  5.3773186040895248e-03  -2.2171669498840055e-01  -2.1918248394258635e-01  1.4590183854961436e-02  -1.3662114588106122e-01  3.8716698560339358e-01  3.7208935022111761e-01  1.6420706933062280e-02  1.8258805019766924e-02  6.6830699518694520e-03  8.8011344472193752e-04  -4.5539326768816992e-03  2.4378537507552572e-02  8.3795225856405312e-03  -1.8467738113091067e-01  2.8889760139740171e-02  1.7473402589071950e-02  -3.2753032697598432e-02  -3.9572669422715319e-02  -8.9647854582838069e-02  -2.2762463489560211e-01  1.3926169243322149e-02  -1.3144878830430851e-01  3.9565662236552369e-02  1.9795102314756728e-09  2.3507193494615906e-02  3.0593449635181225e-02  3.0020232649201364e-02  -1.4439619875480875e-01  2.6402941150818902e-02  1.8968675857765328e-02  -4.0225837038867861e-02  -1.3165716451324834e-02  -1.3890414819494570e-02  -3.9037059415259596e-02  2.1831185021967257e-02  -4.6253502824793154e-03  8.2405571245572386e-03  -2.4675313482802975e-02  2.9706322925446928e-02  3.7078125512597801e-02  -1.6831146657040986e-02  3.8999227796301006e-01  -4.3744723993253444e-03  3.4736045468514602e-02  -7.4906736756991374e-02  6.3515305491325261e-03  5.2674992650857703e-03  2.1200295685686356e-03  -2.0695837133122039e-01  1.0753189161012687e-02  2.2498207586638293e-02  1.0778369471198201e-02  -2.2474501158341123e-01  -1.3574592265425980e-02  2.8670790050110473e-02  3.0198868360480541e-02  -1.8929837169331745e-01  -2.0267122863416726e-01  3.1342858199848826e-02  -2.2954289779030021e-01  -2.5686532719767835e-01  -2.4925810537420462e-01  1.4654570903843239e-02  2.0691024963697333e-02  -4.6002390721741328e-04  -4.2752058615629340e-01  4.1494830255211996e-03  -1.3369811616670421e-01  -1.7158543637767049e-02  3.1772646590493936e-01  -5.4153459356633238e-02  2.3820826519024878e-02  -1.1167098912503506e-01  -5.3124351083014651e-10  1.0746413118795053e+00  8.7551743545791616e-01  -2.8342388424618264e-02  -3.7006741985494175e-02  -1.5019394580223694e-01  7.7423641943976567e-03  2.5301364215135246e-02  -1.3398986074948438e-01  1.7882346639727782e-02  -1.9403818147903726e-01  5.1989917962857235e-01  4.6543138475166462e-01  4.6998261215190618e-01  1.3415247155830083e-02  9.8221858266314375e-03  -1.9491656004184386e-03  1.0893616735239588e-02  1.6054191558285767e-02  3.6691081933928033e-02  5.2463517570639451e-01  1.1686782769812085e-02  -3.7891976348118211e-01  2.6427797740600213e-02  1.8513352195105481e-02  3.2442698130937232e-02  1.5952645244481312e-02  1.4517311308364282e-02  -1.9927310226845937e-01  4.79