<?xml version="1.0"?>
<VTKFile type="UnstructuredGrid"  version="0.1"  >
<UnstructuredGrid>
<Piece  NumberOfPoints="2426" NumberOfCells="4534">
<Points>
<DataArray  type="Float64"  NumberOfComponents="3"  format="ascii">0 0.41 0  0 0 0  2.2 0 0  2.2 0.41 0  0.2404508497187474 0.2293892626146237 0  0.25 0.2 0  0.2404508497187474 0.1706107373853764 0  0.2154508497187474 0.1524471741852423 0  0.1845491502812526 0.1524471741852423 0  0.1595491502812526 0.1706107373853764 0  0.15 0.2 0  0.1595491502812526 0.2293892626146237 0  0.1845491502812527 0.2475528258147577 0  0.2154508497187474 0.2475528258147577 0  0.5404508497187474 0.2293892626146237 0  0.55 0.2 0  0.5404508497187474 0.1706107373853764 0  0.5154508497187473 0.1524471741852423 0  0.4845491502812526 0.1524471741852423 0  0.4595491502812526 0.1706107373853764 0  0.45 0.2 0  0.4595491502812526 0.2293892626146237 0  0.4845491502812526 0.2475528258147577 0  0.5154508497187473 0.2475528258147577 0  1.1 0 0  0 0.205 0  1.1 0.41 0  0.55 0 0  0.55 0.41 0  0.275 0 0  0.275 0.41 0  1.65 0.41 0  1.65 0 0  1.375 0 0  1.375 0.41 0  1.925 0 0  1.925 0.41 0  0.8250000000000001 0.41 0  0.8250000000000001 0 0  1.5125 0.205 0  1.7875 0.205 0  0.9625000000000001 0.205 0  1.2375 0.205 0  2.2 0.205 0  0.7560964076246335 0.2151713709677419 0  1.99375 0.2152743902439024 0  2.0625 0 0  0.6875 0 0  2.0625 0.41 0  2.2 0.3075 0  0.6875 0.41 0  1.7875 0.41 0  1.375 0.1486128048780488 0  1.5125 0 0  1.7875 0 0  1.5125 0.41 0  0.9625000000000001 0 0  0.9625000000000001 0.41 0  0.4125 0 0  0.1375 0 0  0.1375 0.41 0  0.4125 0.41 0  1.2375 0 0  1.1 0.1486128048780487 0  1.2375 0.41 0  1.65 0.1486128048780487 0  1.126715909090909 0.2793064024390244 0  1.676715909090909 0.2793064024390244 0  1.348284090909091 0.2793064024390244 0  0.34375 0.3032389320646208 0  1.894702181800738 0.1282910975492754 0  2.092797818199262 0.1282910975492754 0  1.85625 0.3075 0  0.8630851210521902 0.286932093388664 0  0.89375 0.1025 0  0.35 0.1090282786671641 0  0 0.3075 0  0 0.1025 0  0.6526217841291382 0.288229645480046 0  0.7562500000000001 0.09660248895515888 0  0.6568633732316684 0.1557582854763441 0  2.099172119769978 0.25625 0  1.002356446954348 0.1010393851523063 0  1.99375 0.08395950269330846 0  1.459960956013612 0.3075 0  1.569025960719943 0.2986889805672169 0  1.03125 0.3278689922742084 0  0.75625 0.3247156761655783 0  1.959375 0.3126371951219512 0  1.749222215368287 0.1025 0  1.275777784631713 0.1025 0  2.2 0.1025 0  1.225938124459196 0.3075 0  1.550777784631713 0.1025 0  1.44375 0.07430640243902442 0  1.16875 0.07430640243902437 0  0.3528655045338512 0.2063263890916129 0  0.5890337614812103 0.08775733857679162 0  0.8504912436891263 0.190072835691683 0  1.899250267340833 0.2229966846119207 0  0.1020898364287272 0.3140258291809757 0  1.766482954545455 0.2934032012195123 0  1.051658316544432 0.2265720188842194 0  0.2 0.3400647632937836 0  1.421109702350723 0.2261157654379721 0  0.4812500000000001 0.41 0  0.4324401666997539 0.3216425986889796 0  0.098916018031319 0.09171660955420841 0  0.9508742791313441 0.2921736960864468 0  2.13125 0 0  2.118919042110979 0.3422084711244843 0  1.30625 0.41 0  0.20625 0 0  1.597888256393107 0.2173787389261347 0  0.4812500000000001 0 0  0.4324082967851086 0.08384041677422771 0  1.829299675393195 0.07400700849299596 0  0.568219932524165 0.3212274660843853 0  1.71875 0.41 0  0.268005226542646 0.08512186835670006 0  1.16875 0.41 0  2.038220665644273 0.332420740103091 0  0.6678017527842831 0.07701763866051195 0  0.89375 0.41 0  0.5111435174287687 0.07335351331957608 0  0.176193934632343 0.0734896648625108 0  0.07390688010811153 0.1697064032433452 0  0.05452951551825875 0.25625 0  0.61875 0.41 0  1.452769549894695 0.1548122580621249 0  1.369219062229598 0.07430640243902442 0  1.30625 0 0  1.720943423819132 0.1714577452753128 0  1.157188124459196 0.205 0  1.094219062229598 0.07430640243902437 0  1.304056576180868 0.1714577452753128 0  1.67579304192913 0.07430640243902437 0  0.2672907219039591 0.3037570723459566 0  1.209670467133757 0.1362100266964769 0  1.58125 0 0  1.03125 0 0  0.06875000000000001 0.41 0  0 0.35875 0  1.58125 0.41 0  1.631724228912893 0.3381867502687533 0  0.8240147050827157 0.1225233169495944 0  1.825608881788174 0.14499488549201 0  1.85625 0 0  1.44375 0 0  1.44375 0.41 0  1.85625 0.41 0  2.13125 0.41 0  0.7562500000000001 0.41 0  0.7562500000000001 0 0  0.89375 0 0  0.34375 0 0  0.34375 0.41 0  0.20625 0.41 0  0.06875000000000001 0 0  1.16875 0 0  1.03125 0.41 0  0.61875 0 0  1.71875 0 0  1.99375 0 0  1.99375 0.41 0  0.3972301426712326 0.2593842555611471 0  1.340625 0.3489494290853124 0  1.134375 0.3489494290853123 0  1.700180620188976 0.3438659752031281 0  0.5003922072260507 0.341765274319271 0  0.6212513815748759 0.2209216137134851 0  0.6885607720119526 0.215393731583638 0  1.033412357328477 0.1612902025713047 0  2.135782184673599 0.07126652247502523 0  1.668441847249787 0.2129203728327609 0  1.295782514339747 0.2378437748815763 0  1.409375 0.3520314716057996 0  2.129248544730567 0.1906135162504124 0  2.060771381434487 0.1989445750470348 0  2.013252586573865 0.1496169464686054 0  1.942766402200229 0.1734448904596831 0  1.895522487186454 0.06076163953489683 0  2.069553871656643 0.06605731020975725 0  0.9281250000000001 0.3539050257418612 0  1.274680914880868 0.3520219391081363 0  0.3030138498135347 0.2488370856812789 0  0.8223773249563684 0.341761430177996 0  0.9018164060227267 0.2326477848736739 0  0.8143027982392851 0.2440265179987191 0  0.7225087161029304 0.2699907246386231 0  1.614713220494657 0.09473434380863296 0  0.378125 0.3566194660323104 0  0.309375 0.3566194660323104 0  1.72990325744076 0.2380068107952482 0  0.6915936999299305 0.3429472631234433 0  0.6268087624932918 0.3466455500035671 0  1.356580098625191 0.2120393231351682 0  0.3060160055995138 0.1590148921620778 0  0.3954648733249218 0.156380553890791 0  2.034370752044885 0.2668681600792073 0  1.51768709249349 0.3426260931494756 0  1.561883724969884 0.1650446847858835 0  1.197344062229598 0.2523725417393646 0  0.9281250000000001 0.05124999999999999 0  1.804085235518364 0.3468178408964637 0  1.817887819205233 0.2589243285818559 0  0.9107805776841645 0.1653834539923287 0  1.905897727272727 0.3485060975609756 0  0 0.05125 0  0.844212276491354 0.0614201194265309 0  0.378125 0.05244637078450034 0  1.008571329007178 0.2705955969954818 0  0.7724048032149464 0.1559079561351474 0  0.7203054377831548 0.04941826955193545 0  1.192836486056382 0.3562350748565544 0  0.5967108020713719 0.1479294686523888 0  1.28257088594801 0.2944411014911587 0  0.7041890234548132 0.1222025174424443 0  1.474860187679412 0.2504218616229368 0  1.406767003493824 0.2829282258560709 0  0.3201325899091991 0.05890121548989159 0  0.5979220912872258 0.2727591995766724 0  1.845656689180403 0.1998310418452388 0  2.144958525570388 0.2909790873294231 0  2.2 0.15375 0  1.57794966442982 0.3540357145964566 0  0.9483181579620558 0.1214693369582054 0  0.0496154796471391 0.333125 0  1.508991196088596 0.1421783375065625 0  0.09776612425612034 0.2204896805326566 0  1.50436820029908 0.06143401634903343 0  1.223857000523521 0.0823554862453532 0  0.2531953886959507 0.3582003209055908 0  1.153316824384777 0.1289850171317837 0  2.148922302309752 0.1258841779285271 0  1.621993280276081 0.2841214267927899 0  1.550118654119087 0.2461998729100966 0  1.327182649291491 0.1216967252533594 0  1.753125 0.04556020050186112 0  1.271875 0.04556020050186116 0  0.9824282234771738 0.05051969257615314 0  1.039510847866381 0.05683351822678641 0  1.94956388244759 0.1180512551534177 0  1.949997712993411 0.04965831614304109 0  1.771961817615021 0.1530278789497521 0  1.909246823951428 0.2812757146784527 0  1.101974016627944 0.2038045618205013 0  0.7906250000000001 0.0444674049654372 0  1.948575539857022 0.2445328248721197 0  1.697271520964565 0.1233917627620729 0  1.065625 0.3689344961371042 0  1.085849084308977 0.3170853572226867 0  0.9840604787624379 0.3582077516409966 0  1.577403511714593 0.05463601888079143 0  0.05622663515370135 0.05493816910862376 0  0.8762396958822678 0.3392249777398821 0  1.751571320346033 0.3651102912045228 0  1.055327852410105 0.111864799513911 0  0.1583785085108421 0.2994699345738728 0  0.1455283439499995 0.3542795598723423 0  2.2 0.35875 0  0.225705107073232 0.05084786997482401 0  0.1455852234589313 0.1166494778469164 0  1.466879772203159 0.3611261772912453 0  1.990280163552011 0.3564754268533217 0  1.17471064520912 0.2990917256188288 0  0.7221925551074015 0.1739659241003985 0  0 0.25625 0  2.2 0.25625 0  2.2 0.05125 0  0 0.15375 0  1.853978576207987 0.35875 0  0.21965520498276 0.1015543880164422 0  1.515638456102889 0.2882700110184686 0  0.09048297387599738 0.3637717362208066 0  2.150453692751374 0.2387066338105111 0  1.323782677156475 0.04897634338873398 0  1.409375 0.03715320121951221 0  1.406484531114799 0.1087852750766809 0  1.134375 0.03715320121951218 0  1.627401732573545 0.04552157221025036 0  0.446875 0.3713289093361426 0  2.045405893604797 0.1105340662939892 0  1.255408269734577 0.1577307500159216 0  2.028125 0.03707597992059326 0  0.04420832937638274 0.128125 0  0.5817551710628505 0.3702615006034757 0  0.1197849154434487 0.2663398672460083 0  1.248258025468107 0.2565907092181813 0  0.1300647302703173 0.0508462728378621 0  0.7738123537510222 0.2761231499240648 0  1.203125 0.0366132337404304 0  0.5444207041612499 0.111205399508622 0  0.8016457771828226 0.1964238426015905 0  2.072662025974815 0.2975086504196739 0  0.4019040438866802 0.2103993403217561 0  0.4677372330974851 0.04827477407630658 0  0.8677218578847617 0.1432970430140788 0  1.058011122005847 0.2758866204059919 0  0.4429405887974043 0.2746184809910084 0  0.5843750000000001 0.03726989681835222 0  0.6318596133730142 0.1128692182767254 0  0.4862628454464408 0.2957029785303028 0  0.7805186758662764 0.3673578380827891 0  1.887722846421017 0.1760882698830035 0  0.3498893058880703 0.256189258793856 0  1.472640588990488 0.1118278026240017 0  1.865937103925594 0.2604137786483804 0
[...]
<PointData  Scalars="f_43"> 
<DataArray  type="Float64"  Name="f_43"  format="ascii">4.4152913297216606e-01  4.7234451169408859e-01  9.4411378432667102e-10  1.1969968983867610e-09  -3.4292215031275780e-01  -3.0646387498215621e-01  -3.2904621443546961e-01  -4.9649090283955005e-01  -9.1367407408603540e-01  8.8200791790517952e-01  2.0155900492162462e+00  4.1886297581891696e-01  -1.1398537160355813e+00  -4.9002475877070678e-01  -2.6065700440432354e-01  -2.3645014216771798e-01  -2.7188213061496957e-01  -4.4214466791595647e-01  -1.1361956524789497e-01  -9.1282036740752609e-02  -2.7344822755283532e-01  -1.1971529724493649e-01  -5.2057955450686040e-02  -5.0029194853201697e-01  -2.5459657592691223e-03  7.8378934382369980e-01  1.4218035398268516e-02  -1.8479284116740399e-01  -1.7770149233671570e-01  1.9534746822869941e-02  3.9700613623312717e-02  2.3341452389119246e-02  3.3009218132467801e-02  3.3010544270735180e-02  2.3439376591166742e-02  1.5253949530817781e-02  2.2766032847364552e-02  -7.3121326148400209e-02  -6.6171882774118729e-02  3.1325857322841225e-02  2.4000017360364057e-02  3.1782746944991343e-02  2.4458269668506970e-02  3.3662044472181668e-09  -4.1974554388641748e-02  1.2403940200732728e-02  8.5996454612936486e-03  -1.3505551355427561e-01  5.7517580437806129e-03  2.0197158146960014e-09  -1.2818851226956840e-01  2.5522536361581513e-02  3.2800859939006437e-02  2.6118939354366523e-02  2.3693505844202326e-02  3.8084637565321044e-02  -1.4365690632420878e-02  -3.2318272582818129e-02  -1.7457241969152212e-01  3.8911127445347637e-01  3.6627547151850415e-01  -1.5742973555098683e-01  2.8992436356436068e-02  1.4261145677142935e-02  1.6064824899356324e-02  3.2105359266831411e-02  2.7488018054246617e-02  2.0810951129648522e-02  2.1995351428590056e-02  -2.3714143292037596e-01  1.5272541757503373e-02  5.8856591295275229e-03  2.7434852037721856e-02  -2.5007289491528747e-02  -5.6876785891407048e-03  -2.7606673739656351e-01  5.3813982167015972e-01  5.7225744951128044e-01  -1.6606802859466102e-01  -8.2566391187296959e-02  -1.9240398452628907e-01  -1.3865214745182462e-03  2.6373670610693512e-03  1.3185850057009332e-02  3.7984051116944161e-02  3.3628518572701042e-02  -2.8657415376601592e-04  -8.6055050157178667e-02  2.0173775207298184e-02  2.8074044114895533e-02  3.6360613636681978e-02  -1.9230466607972209e-09  1.8537626880054354e-02  2.7183418481526576e-02  2.5179155728912918e-02  1.0652594428119680e-02  -3.3560945068511727e-01  -2.0346257679189370e-01  2.5927590138556642e-02  2.1128918511468548e-02  4.8157705113524513e-01  2.3189062152636747e-02  3.7691728363621252e-02  1.6991437084875913e-01  3.5257743578477399e-02  -1.7944200343325423e-01  -1.9486484480211749e-01  5.1087596696474735e-01  -6.9789183294333198e-03  4.1256847026996312e-03  -5.1548296391857218e-04  1.4548788680857835e-02  2.1691491688785455e-01  2.8653039141475076e-02  -1.8955674028337277e-01  -1.9508437272002788e-01  1.9640631764326844e-02  -2.0293379303127526e-01  2.1681921424903976e-02  -1.2972331410960600e-01  2.0561996617480316e-02  8.2655276246047515e-03  -1.4796951824276447e-01  -5.3839258745738021e-02  -2.0468259201650901e-01  2.3354380570230027e-01  9.1634369678312955e-01  7.3872724067193307e-01  -1.5787350068424869e-01  2.5835931064173576e-02  3.4567638259496526e-02  3.6473508015892317e-02  2.8853044477705796e-02  2.6999233294244463e-02  -3.6378138444266767e-03  3.4626503379886965e-02  3.3243786233429051e-02  -1.6857217631958393e-01  2.9469996292268371e-02  3.0901082847374861e-02  -7.9616583657963619e-03  4.2936264153281717e-01  4.5370412711890917e-01  3.1419551694112813e-02  2.3939423573028352e-02  -1.4932259571583794e-02  1.9905097471075599e-02  1.8243304017315724e-02  2.6688547526620584e-02  3.5101259863732609e-02  2.6973545450138713e-02  8.6365078945750619e-04  -9.7799444113334993e-02  -1.0116985731152428e-01  -3.4284763695493339e-02  -1.1836028234218854e-01  -8.8674068046154214e-02  2.1610843772989882e-01  4.5802663554608941e-01  1.1775924755560217e-02  -6.4570477827381864e-03  -1.6289010917431268e-01  2.9723836746490987e-02  1.2826190836938246e-02  1.4786401584838953e-02  -3.1907201814817232e-01  1.5427899187165292e-02  2.2534694572708139e-02  1.9091483289546813e-02  -1.9267764112423325e-01  -2.2190482875401771e-01  -1.3125604109424530e-01  1.6434507068092082e-02  3.6655682401600881e-03  2.2540460363307566e-02  1.8207847520940974e-02  2.9536305465952511e-02  -2.2384092461035692e-03  1.9210798238853070e-03  1.1700114186104282e-02  1.4115175755643500e-02  1.5475061804059592e-02  7.8976244189022955e-03  -4.2369768263709251e-02  1.2296275001355106e-02  -3.3537178517442429e-01  -6.5501116806439733e-02  1.6059027580821936e-02  -1.3806612723206258e-02  -9.0597248301081235e-02  3.2585406576357646e-02  -1.4841033675332974e-01  -6.5722397497810725e-02  2.1837019554701510e-02  -1.2370909953200153e-01  -1.5891170058024637e-01  2.7736028821088030e-02  -3.3033681495307099e-01  -3.5138874611174581e-01  7.0510379034913143e-03  3.9833092346067953e-02  2.9135301913763303e-02  2.0947577575587996e-02  -1.8574142825333064e-02  2.6543956262271500e-02  2.6645176551740705e-02  3.7679655686181299e-02  2.5219323691004422e-02  4.8527058007129797e-01  -4.9749373157539870e-02  -1.7012982084736628e-01  2.1524679231873529e-02  -3.3308116446648918e-02  -1.1561178709080994e-01  2.0931995036803229e-02  -2.3739948841759045e-01  1.4575002831208385e-02  -1.2456434561416989e-01  3.8190265062884164e-02  3.1198929120137574e-02  -1.1311077427351093e-01  -2.2889266682709997e-01  2.0617602307994785e-02  -1.9371720595570999e-03  -2.9877522277827572e-09  3.2358672264725448e-02  1.2024990926955857e-02  4.7712286558588207e-01  2.5864788018450185e-02  1.1358532013378542e+00  2.3845476208056753e-02  2.7031213477370739e-02  4.9681789062999401e-02  1.7931077344055482e-02  3.1419621130171159e-03  2.5604357669245272e-02  3.4397713060482706e-02  3.6346246934840599e-02  2.6979359974951864e-02  3.5567682700713768e-02  -8.6784937546100470e-03  -6.6041961653264970e-03  1.4075016501121005e-02  1.4404426393129525e-02  2.6239332728147421e-02  2.4396983001183356e-02  2.7160291426303874e-02  -8.0737946316752421e-02  2.0506153006883170e-02  3.1337368298231201e-02  6.1186041960335042e-03  1.8151913016101563e-02  -2.3726854210595123e-02  3.0360820888340467e-02  4.7844424263488766e-01  -5.1386380078945665e-02  2.2537562949826565e-02  3.7678665567579118e-03  2.4919662594585276e-01  3.4065174617327038e-01  -6.2924660112103328e-09  1.1868042205303171e-01  3.5694860461810851e-01  3.8457594477972305e-02  1.5552768876090382e-02  2.4509668933418587e-02  -9.7572728377082751e-02  6.8942449834536723e-01  2.0197158146960014e-09  1.2229877296921293e-09  7.1580331147981091e-01  2.7639676306005018e-02  -1.2031923342968320e-01  3.8154583821358799e-02  4.2071650122590643e-01  -1.3126809233004479e-03  3.7935709130245854e-02  2.9243057826619269e-02  3.0052709438427940e-02  2.0207277684885579e-03  3.3363444508160263e-02  -1.7299403981653980e-01  9.6577130477602732e-03  3.4860644791636489e-02  1.0994501666500268e-02  6.5906403578488304e-01  -1.7057154456663784e-01  6.8501939952000235e-01  1.6311321025515465e-02  3.9465809044126005e-01  -5.3177967748559721e-02  2.0444025102938086e-02  -2.5996855700747867e-01  -1.6938361320698227e-03  2.8392064512898743e-03  -3.1344829394430207e-01  -1.8731613804469419e-01  2.2699865508085840e-02  2.5976446429039832e-02  -1.9343448236466942e-01  -1.7572568324348231e-01  -1.9441476979856689e-01  -2.0310405917656857e-01  -8.4961906706594176e-02  1.4876089280452774e-02  -3.4070578082135228e-01  2.4633941473431124e-02  2.6089539353746215e-02  1.8587953443382037e-02  3.2161873887929501e-02  -1.1169395941872719e-01  2.2350386319103719e-02  -1.1250545841304949e-01  -1.5892003484217268e-01  -1.0436429109491312e-01  3.1511964472075223e-02  -2.0775689546076923e-01  -1.8115245785312306e-01  2.0766757935529869e-02  -2.7085683672178212e-01  -2.2023375211324381e-01  2.4951868429345370e-02  5.5845182828771506e-03  3.1667152379386901e-02  -4.0989172307447835e-02  1.0030278033634165e-02  -3.2711704385133661e-01  -3.3804747495394100e-01  3.1556217171517062e-02  -3.4030002539716420e-01  9.2384831222676378e-01  2.6363168889739583e-02  8.5890925875623902e-01  1.4744910655760918e-02  1.1436846808077451e-03  -2.6526063875000856e-02  -9.2644050360318460e-04  2.5986151424632017e-03  3.6620269128985116e-03  -7.8236697593958692e-03  2.4567376330360293e-02  2.6939323607938978e-02  -1.3795929456146006e-01  -2.7039908424285447e-01  2.4008459301589395e-02  -6.3263041738866654e-02  1.3756095147569938e-02  3.1417019081866462e-02  2.8380681330762030e-02  2.5459259014371849e-02  2.8874101299966131e-02  -1.8125849459848981e-01  -1.7970395774394490e-01  3.5582732153963972e-02  3.1968694031928667e-02  3.0817764376479512e-02  2.4195642847056934e-03  -5.2310195135831124e-05  4.3903620000714860e-01  -2.8248697114486931e-01  -1.8703386993056379e-02  2.2952276760109250e-02  2.2744705646864649e-02  1.6536656102754146e-02  -5.9929218022046669e-02  2.8305852389541926e-02  2.0887864154197369e-02  -3.0857005606054762e-02  3.5351396184856970e-02  2.6861660078782844e-02  2.0333936960519505e-02  3.1294261067546181e-01  2.1392200323083185e-02  -1.8979767150670274e-01  -1.8791033636428106e-01  -5.9689343777642482e-03  3.0122659346473463e-01  8.1918596867481056e-03  -9.0341926495204564e-03  3.0600324881201620e-02  -2.2908088001058727e-01  1.6097933772118649e-02  2.8874714015096462e-03  2.4527151361842192e-02  2.9232458773706223e-02  -2.4915992252661054e-01  -1.3764677405356338e-01  1.7789230289143868e-02  4.3303131330415991e-03  2.8072921113727434e-02  2.0813601850392684e-02  3.1761915164318567e-02  8.7816186455043138e-04  4.3403661911888547e-01  1.3838002876634833e-02  -1.3489601358021194e-01  -1.8866340340108187e-01  -1.0563362249895540e-01  1.3220375710913480e-02  -3.2035674742442177e-01  2.5523338990542585e-02  -4.9380553027798847e-02  1.7736648409790869e-02  1.6427916391034917e-02  1.4299041291226429e-02  -5.4119566761937016e-03  2.4310034912784988e-02  3.0921429897646950e-02  3.3062827005330545e-02  3.3078965230157971e-02  4.6966762954368896e-01  4.4188313886736358e-01  8.7872953761899218e-03  2.8851181210043521e-02  -6.3901060670684268e-02  -5.5757403351850393e-02  1.3840821611999272e-02  3.8741574333961120e-03  5.7398370775490115e-01  -2.2424627736489394e-01  7.1070943965750377e-01  -1.5901143936454909e-01  2.4876760692074271e-02  -7.8932895688066579e-02  -2.6935278122429553e-02  -2.4080875857146455e-01  2.5813928625473118e-02  7.7999000980918709e-01  -1.6780479623184943e-01  1.0803699169271588e-02  3.6467598487268063e-02  2.7145700085092050e-01  3.7512842388064856e-02  6.1447900780394216e-01  2.6438541827005453e-02  -1.1270748209817950e-01  2.3897858905275533e-02  2.4638009530215929e-02  2.9421718577532729e-02  3.6116673167645851e-02  3.3952372021724235e-02  3.4855339313619352e-02  4.5642770327843241e-03  3.1313546105755825e-02  3.5246455759569681e-02  -1.8124133349521648e-01  1.3674518868364367e-02  -1.9028353096345479e-01  -1.5034495181518145e-01  2.0457492906704677e-02  3.2833647185996462e-02  5.4656792431526802e-01  2.8839276293302844e-02  1.9881880081356974e-02  2.5105252797273714e-01  4.5322172516522763e-01  -1.9477264760734261e-02  5.1561560944763163e-01  2.5244072939197400e-02  -4.4107155395848259e-02  2.9965890995926423e-02  -1.8919796418578211e-01  3.7684402316114356e-02  2.0736726199078973e-02  -1.6572601541599055e-01  -5.2603991283612622e-02  -1.2029717502559795e-04  6.4856138803742261e-03  3.8808708787740606e-02  -9.6361618336289088e-04  -2.1907734513795775e-02  -3.5200347790823681e-03  -1.7238642614790557e-03  2.3674933130005120e-02  2.6747426833873919e-02  -3.2635270619542023e-01  2.9397039040118016e-02  1.6604532296042189e-02  2.4350349145665193e-03  4.2970636906440656e-03  1.5295732985839465e-02  1.2491512944880078e-03  2.4348895758312603e-02  1.7329308243291892e-02  2.3057879070013356e-02  1.3055625854980726e-02  -1.8532547854666509e-01  -1.7962525357195067e-01  1.1509294505272641e-01  -6.6640378354243301e-02  -9.9668169217300290e-02  -1.8164788037570204e-01  -1.5844075986537678e-01  1.3804404955056375e+00  -8.3112008167375365e-03  1.7319820863866048e-01  2.1682080196368199e-02  1.9208546963801938e-02  1.3279830685579202e-02  1.8055798901528149e-02  2.2308571663650273e-02  2.5788910329001168e-02  2.9746702990515909e-02  3.6676785937714198e-03  1.8687162822642569e-02  -3.0962836914841224e-01  -1.8547102422385353e-01  1.7015987644259611e-02  -3.2160663059736994e-01  -2.5039237887829013e-01  2.9307840667631310e-02  -2.7216448007177457e-01  -3.3515979044877353e-01  3.0054351357321984e-02  2.1587419739657613e-02  1.1990482991888552e-02  8.4984994738105338e-03  1.9685201414653054e-02  1.4367456589119887e-02  -2.0978371808487623e-01  1.7900906141453812e-02  2.7025379189556404e-02  3.2624999481278803e-02  1.0765723146396124e-02  3.5784151546344220e-02  2.0851934867597050e-03  6.2791193211751617e-03  2.9430562484040985e-02  3.8151191973535566e-02  2.3401352275305754e-02  5.3502627711453834e-03  2.6855065246512853e-02  -1.1802267093996054e-01  -2.2531093940837542e-02  -4.3529165507589396e-02  2.9876074766348119e-02  3.3903289434618830e-03  2.2431136415371439e-04  -6.1609379036041637e-03  -1.7192672323097410e-01  -1.5291521939141414e-01  -1.2946059079902600e-01  4.0634542577774063e-01  1.2739926377132274e-01  -8.4554242853437891e-02  -1.7692410883285864e-01  -1.7021029639812935e-01  -8.3692722640836728e-02  -3.5570170009352184e-02  -9.9257894409309030e-02  -1.4168422638540101e-01  -1.4378554058139972e-01  2.0912041360041218e-02  3.2600983690411582e-02  1.4233216450127255e-02  3.4421432334496092e-02  1.0914078283276684e-02  1.9076297588920776e-02  -1.0201648535389539e-02  2.0834311270425440e-02  -1.3273724174138005e-01  1.2270537414413632e-02  2.4618169178360915e-02  3.1471502986365793e-02  2.7737229933394090e-02  2.6807107575048051e-02  2.5150627619129142e-02  -7.4454574413446453e-02  -4.7903342890454385e-02  -3.0088088776945771e-01  -3.2274423536173102e-01  -1.4507103980259839e-01  9.0215083764198668e-03  2.3310455441850713e-02  1.8497370379981726e-02  3.4347206177414928e-02  4.0947263755466856e-01  2.4096782996714906e-02  3.8059667482266739e-02  4.0318841054835707e-02  -8.3841696759180739e-02  1.5562872394314980e-02  3.0421016428939790e-01  3.5783646697182099e-02  3.2508423927467445e-02  2.0704360984091522e-02  2.6199521111055089e-02  1.1452453761575913e-02  -1.2020765768402436e-01  2.2384792886468642e-02  -5.1743012658329243e-02  2.0149261475899717e-02  2.0549793278162792e-02  2.4414443920885782e-02  -1.4400711997661458e-01  2.3613084221096096e-02  3.8773593140172126e-02  7.5388864219936835e-01  -1.7746175861959537e-01  -2.2719151552441112e-03  3.1846215475698020e-02  -2.4779892175153792e-01  -4.5425735857620865e-02  8.6334741340868583e-03  6.3030813054645056e-03  3.3113554277692976e-02  8.1748083699242269e-01  1.4888565741627368e-02  2.5661113974510461e-02  1.6100897465518880e-02  1.4412362820401987e-02  3.8460827537682596e-01  1.3669395902834159e-03  3.4590640089220004e-01  -3.5317517212185991e-02  7.8850883987587606e-03  -3.3710656185574495e-01  -3.4618367981422382e-01  2.6259892149790898e-02  -3.3902796953784475e-01  -9.7099476880615973e-03  2.7843987882916619e-02  1.9242854313648694e-02  2.5448411569365243e-02  1.4066157695630107e-02  1.9741278157666253e-02  -7.5742325113637256e-04  6.2723936617438275e-03  -1.8491124477148908e-02  2.9500709876040965e-02  -1.7903366994165271e-01  3.0223899566946499e-02  3.3880316772173055e-02  2.4471334795402436e-02  -6.5487280939188139e-02  -9.8707088135023380e-02  -8.0251080982964934e-02  -5.4889841074540056e-02  2.9446800669686003e-02  3.3877078198501193e-02  -2.4597011340824709e-01  -1.5209896836653089e-01  -1.7769326526885865e-01  2.9549085596497097e-02  5.9897256810296162e-01  2.7658883160559943e-02  1.1235585684694944e-02  -9.1242383747315969e-02  3.7080270287895699e-02  -2.1898689466425700e-01  2.6557902754311875e-02  -3.2743367568674359e-01  1.1545974912907334e-02  -1.3342810833171750e-01  -1.6294674318670821e-01  -1.9292458896750336e-01  2.2048827099249983e-02  3.1589986607118897e-02  2.9338426648498221e-02  2.5177634972130207e-02  2.1871053091928182e-02  -8.3705236626248139e-02  1.1391633201649538e+00  2.3079051363622538e-02  -1.8245899208644507e-02  -3.0124917267386297e-01  1.7837248377794140e-02  1.8565171217769762e-02  2.9110410123440976e-02  2.3485683645075181e-02  2.5575741518714279e-02  2.6873022841790054e-02  -2.4864014822753933e-03  2.5071639037668292e-02  1.7403409130953569e-02  -1.7242813332775740e-02  -2.9874172338301461e-02  4.7274576698990034e-01  4.7100442234708556e-01  2.7934957106303990e-02  -2.5983164443594059e-01  1.4813148588752257e-02  7.7543029187243200e-03  3.5455687697599776e-02  7.1323773986003702e-03  1.1766219530877363e-02  3.7951704343611746e-02  6.1914705613048604e-01  -2.9585808297979282e-02  3.6845554473035211e-02  8.6778124732521042e-02  2.6059991538312338e-01  -1.0589031301768724e-01  1.3554396353601608e-02  1.7581641306543289e-02  -2.3455788268578220e-01  -2.1781768112686217e-01  -3.3102134515952492e-01  3.4142474646707402e-02  2.7138074664203895e-02  -2.5008534931936532e-01  4.5541121709407273e-01  7.6738548521506500e-01  5.6668088515284031e-03  -1.3513839769312419e-01  2.0018683280229401e-02  1.8556175703086632e-02  3.2417204945660937e-02  2.6132376001660084e-02  3.3662044472181668e-09  -1.9068381960187528e-01  2.2351709992147351e-02  2.2345684286699478e-03  -1.9770396770307438e-01  -1.8664916967263401e-01  2.6183950546242534e-03  -1.2876586719265642e-01  4.0593243984069483e-01  3.9078287444282661e-01  2.4831342282866913e-02  3.1945784946236302e-02  3.7141801049447740e-02  3.8160297314524194e-02  3.6715111110276887e-02  2.6484077728203780e-02  2.7578089837681834e-02  -1.6447590306938545e-01  2.7455888603086859e-02  3.5613580684952649e-02  1.3329003099791133e-02  8.3618691018891508e-03  -6.4034915443793930e-02  -2.0606371263992157e-01  1.8883377762351251e-02  -1.1027284205981161e-01  6.0355250671836780e-02  -1.9230466607972209e-09  1.6486335874161442e-02  1.6614057683138363e-02  1.3370901750523067e-02  -1.3979285604742572e-01  2.9350060075478655e-02  -3.3789378479732908e-03  2.2561771825915868e-02  2.5487561560053211e-02  9.2936820961791490e-03  5.6508107548767991e-03  1.2922862884454772e-02  -1.5352904690579755e-03  -4.1311147728796179e-03  -5.1025243303237672e-03  2.4979029330731387e-02  2.3216381019897821e-02  -2.6616839706240382e-02  4.1035443426326046e-01  -7.1474676707292727e-03  2.4217758521872003e-02  -3.9676247319528138e-02  -1.8134995954858944e-03  -1.5437664874686030e-03  -1.2452785540938648e-03  -1.9183323176555250e-01  2.4201465247615638e-02  1.6474115586917751e-02  2.6277300435328946e-02  -2.1455175527902895e-01  3.7060886053259169e-02  2.8382010932042463e-02  2.4936272532960466e-02  -1.7831089366879646e-01  -1.9032633930890389e-01  3.0888432452976476e-02  -1.9830960951857560e-01  -2.3191304256828929e-01  -2.2551007876774334e-01  2.3289752458387630e-02  1.3381037827196796e-02  3.0513889624486566e-02  -4.0606527557048006e-01  1.8582489742361683e-02  -1.2418792472928256e-01  3.8076501568209624e-02  3.3639040095326056e-01  -1.1873079479894699e-02  2.5938116734885343e-05  -1.0059426890571239e-01  3.3662044472181668e-09  1.0942616943522332e+00  8.9479533399396560e-01  -1.2724408777993674e-02  -4.5681299450105628e-02  -1.1645098267833701e-01  3.3021486636436177e-02  2.7798173539647870e-02  -1.0763796902503284e-01  1.4336666841544997e-02  -1.6567153711074051e-01  5.3881998568705969e-01  4.8430003778966935e-01  4.8883757508215253e-01  1.4389085436804297e-02  -3.3714049876611744e-03  3.5345829752504561e-02  3.2852924071012889e-02  3.1241151937017729e-02  1.6396139303616001e-02  5.4531261390736618e-01  1.9271283566913981e-02  -3.6133327472115551e-01  3.1304723329943350e-02  2.2769047747908732e-02  2.4686363976483827e-02  1.4835689115615324e-02  1.4827685571969633e-02  -1.7949211138338797e-01  2.0350885231904023e-02  -1.8737875988057634e-01  2.71965912156