<?xml version="1.0"?>
<VTKFile type="UnstructuredGrid"  version="0.1"  >
<UnstructuredGrid>
<Piece  NumberOfPoints="2426" NumberOfCells="4534">
<Points>
<DataArray  type="Float64"  NumberOfComponents="3"  format="ascii">0 0.41 0  0 0 0  2.2 0 0  2.2 0.41 0  0.2404508497187474 0.2293892626146237 0  0.25 0.2 0  0.2404508497187474 0.1706107373853764 0  0.2154508497187474 0.1524471741852423 0  0.1845491502812526 0.1524471741852423 0  0.1595491502812526 0.1706107373853764 0  0.15 0.2 0  0.1595491502812526 0.2293892626146237 0  0.1845491502812527 0.2475528258147577 0  0.2154508497187474 0.2475528258147577 0  0.5404508497187474 0.2293892626146237 0  0.55 0.2 0  0.5404508497187474 0.1706107373853764 0  0.5154508497187473 0.1524471741852423 0  0.4845491502812526 0.1524471741852423 0  0.4595491502812526 0.1706107373853764 0  0.45 0.2 0  0.4595491502812526 0.2293892626146237 0  0.4845491502812526 0.2475528258147577 0  0.5154508497187473 0.2475528258147577 0  1.1 0 0  0 0.205 0  1.1 0.41 0  0.55 0 0  0.55 0.41 0  0.275 0 0  0.275 0.41 0  1.65 0.41 0  1.65 0 0  1.375 0 0  1.375 0.41 0  1.925 0 0  1.925 0.41 0  0.8250000000000001 0.41 0  0.8250000000000001 0 0  1.5125 0.205 0  1.7875 0.205 0  0.9625000000000001 0.205 0  1.2375 0.205 0  2.2 0.205 0  0.7560964076246335 0.2151713709677419 0  1.99375 0.2152743902439024 0  2.0625 0 0  0.6875 0 0  2.0625 0.41 0  2.2 0.3075 0  0.6875 0.41 0  1.7875 0.41 0  1.375 0.1486128048780488 0  1.5125 0 0  1.7875 0 0  1.5125 0.41 0  0.9625000000000001 0 0  0.9625000000000001 0.41 0  0.4125 0 0  0.1375 0 0  0.1375 0.41 0  0.4125 0.41 0  1.2375 0 0  1.1 0.1486128048780487 0  1.2375 0.41 0  1.65 0.1486128048780487 0  1.126715909090909 0.2793064024390244 0  1.676715909090909 0.2793064024390244 0  1.348284090909091 0.2793064024390244 0  0.34375 0.3032389320646208 0  1.894702181800738 0.1282910975492754 0  2.092797818199262 0.1282910975492754 0  1.85625 0.3075 0  0.8630851210521902 0.286932093388664 0  0.89375 0.1025 0  0.35 0.1090282786671641 0  0 0.3075 0  0 0.1025 0  0.6526217841291382 0.288229645480046 0  0.7562500000000001 0.09660248895515888 0  0.6568633732316684 0.1557582854763441 0  2.099172119769978 0.25625 0  1.002356446954348 0.1010393851523063 0  1.99375 0.08395950269330846 0  1.459960956013612 0.3075 0  1.569025960719943 0.2986889805672169 0  1.03125 0.3278689922742084 0  0.75625 0.3247156761655783 0  1.959375 0.3126371951219512 0  1.749222215368287 0.1025 0  1.275777784631713 0.1025 0  2.2 0.1025 0  1.225938124459196 0.3075 0  1.550777784631713 0.1025 0  1.44375 0.07430640243902442 0  1.16875 0.07430640243902437 0  0.3528655045338512 0.2063263890916129 0  0.5890337614812103 0.08775733857679162 0  0.8504912436891263 0.190072835691683 0  1.899250267340833 0.2229966846119207 0  0.1020898364287272 0.3140258291809757 0  1.766482954545455 0.2934032012195123 0  1.051658316544432 0.2265720188842194 0  0.2 0.3400647632937836 0  1.421109702350723 0.2261157654379721 0  0.4812500000000001 0.41 0  0.4324401666997539 0.3216425986889796 0  0.098916018031319 0.09171660955420841 0  0.9508742791313441 0.2921736960864468 0  2.13125 0 0  2.118919042110979 0.3422084711244843 0  1.30625 0.41 0  0.20625 0 0  1.597888256393107 0.2173787389261347 0  0.4812500000000001 0 0  0.4324082967851086 0.08384041677422771 0  1.829299675393195 0.07400700849299596 0  0.568219932524165 0.3212274660843853 0  1.71875 0.41 0  0.268005226542646 0.08512186835670006 0  1.16875 0.41 0  2.038220665644273 0.332420740103091 0  0.6678017527842831 0.07701763866051195 0  0.89375 0.41 0  0.5111435174287687 0.07335351331957608 0  0.176193934632343 0.0734896648625108 0  0.07390688010811153 0.1697064032433452 0  0.05452951551825875 0.25625 0  0.61875 0.41 0  1.452769549894695 0.1548122580621249 0  1.369219062229598 0.07430640243902442 0  1.30625 0 0  1.720943423819132 0.1714577452753128 0  1.157188124459196 0.205 0  1.094219062229598 0.07430640243902437 0  1.304056576180868 0.1714577452753128 0  1.67579304192913 0.07430640243902437 0  0.2672907219039591 0.3037570723459566 0  1.209670467133757 0.1362100266964769 0  1.58125 0 0  1.03125 0 0  0.06875000000000001 0.41 0  0 0.35875 0  1.58125 0.41 0  1.631724228912893 0.3381867502687533 0  0.8240147050827157 0.1225233169495944 0  1.825608881788174 0.14499488549201 0  1.85625 0 0  1.44375 0 0  1.44375 0.41 0  1.85625 0.41 0  2.13125 0.41 0  0.7562500000000001 0.41 0  0.7562500000000001 0 0  0.89375 0 0  0.34375 0 0  0.34375 0.41 0  0.20625 0.41 0  0.06875000000000001 0 0  1.16875 0 0  1.03125 0.41 0  0.61875 0 0  1.71875 0 0  1.99375 0 0  1.99375 0.41 0  0.3972301426712326 0.2593842555611471 0  1.340625 0.3489494290853124 0  1.134375 0.3489494290853123 0  1.700180620188976 0.3438659752031281 0  0.5003922072260507 0.341765274319271 0  0.6212513815748759 0.2209216137134851 0  0.6885607720119526 0.215393731583638 0  1.033412357328477 0.1612902025713047 0  2.135782184673599 0.07126652247502523 0  1.668441847249787 0.2129203728327609 0  1.295782514339747 0.2378437748815763 0  1.409375 0.3520314716057996 0  2.129248544730567 0.1906135162504124 0  2.060771381434487 0.1989445750470348 0  2.013252586573865 0.1496169464686054 0  1.942766402200229 0.1734448904596831 0  1.895522487186454 0.06076163953489683 0  2.069553871656643 0.06605731020975725 0  0.9281250000000001 0.3539050257418612 0  1.274680914880868 0.3520219391081363 0  0.3030138498135347 0.2488370856812789 0  0.8223773249563684 0.341761430177996 0  0.9018164060227267 0.2326477848736739 0  0.8143027982392851 0.2440265179987191 0  0.7225087161029304 0.2699907246386231 0  1.614713220494657 0.09473434380863296 0  0.378125 0.3566194660323104 0  0.309375 0.3566194660323104 0  1.72990325744076 0.2380068107952482 0  0.6915936999299305 0.3429472631234433 0  0.6268087624932918 0.3466455500035671 0  1.356580098625191 0.2120393231351682 0  0.3060160055995138 0.1590148921620778 0  0.3954648733249218 0.156380553890791 0  2.034370752044885 0.2668681600792073 0  1.51768709249349 0.3426260931494756 0  1.561883724969884 0.1650446847858835 0  1.197344062229598 0.2523725417393646 0  0.9281250000000001 0.05124999999999999 0  1.804085235518364 0.3468178408964637 0  1.817887819205233 0.2589243285818559 0  0.9107805776841645 0.1653834539923287 0  1.905897727272727 0.3485060975609756 0  0 0.05125 0  0.844212276491354 0.0614201194265309 0  0.378125 0.05244637078450034 0  1.008571329007178 0.2705955969954818 0  0.7724048032149464 0.1559079561351474 0  0.7203054377831548 0.04941826955193545 0  1.192836486056382 0.3562350748565544 0  0.5967108020713719 0.1479294686523888 0  1.28257088594801 0.2944411014911587 0  0.7041890234548132 0.1222025174424443 0  1.474860187679412 0.2504218616229368 0  1.406767003493824 0.2829282258560709 0  0.3201325899091991 0.05890121548989159 0  0.5979220912872258 0.2727591995766724 0  1.845656689180403 0.1998310418452388 0  2.144958525570388 0.2909790873294231 0  2.2 0.15375 0  1.57794966442982 0.3540357145964566 0  0.9483181579620558 0.1214693369582054 0  0.0496154796471391 0.333125 0  1.508991196088596 0.1421783375065625 0  0.09776612425612034 0.2204896805326566 0  1.50436820029908 0.06143401634903343 0  1.223857000523521 0.0823554862453532 0  0.2531953886959507 0.3582003209055908 0  1.153316824384777 0.1289850171317837 0  2.148922302309752 0.1258841779285271 0  1.621993280276081 0.2841214267927899 0  1.550118654119087 0.2461998729100966 0  1.327182649291491 0.1216967252533594 0  1.753125 0.04556020050186112 0  1.271875 0.04556020050186116 0  0.9824282234771738 0.05051969257615314 0  1.039510847866381 0.05683351822678641 0  1.94956388244759 0.1180512551534177 0  1.949997712993411 0.04965831614304109 0  1.771961817615021 0.1530278789497521 0  1.909246823951428 0.2812757146784527 0  1.101974016627944 0.2038045618205013 0  0.7906250000000001 0.0444674049654372 0  1.948575539857022 0.2445328248721197 0  1.697271520964565 0.1233917627620729 0  1.065625 0.3689344961371042 0  1.085849084308977 0.3170853572226867 0  0.9840604787624379 0.3582077516409966 0  1.577403511714593 0.05463601888079143 0  0.05622663515370135 0.05493816910862376 0  0.8762396958822678 0.3392249777398821 0  1.751571320346033 0.3651102912045228 0  1.055327852410105 0.111864799513911 0  0.1583785085108421 0.2994699345738728 0  0.1455283439499995 0.3542795598723423 0  2.2 0.35875 0  0.225705107073232 0.05084786997482401 0  0.1455852234589313 0.1166494778469164 0  1.466879772203159 0.3611261772912453 0  1.990280163552011 0.3564754268533217 0  1.17471064520912 0.2990917256188288 0  0.7221925551074015 0.1739659241003985 0  0 0.25625 0  2.2 0.25625 0  2.2 0.05125 0  0 0.15375 0  1.853978576207987 0.35875 0  0.21965520498276 0.1015543880164422 0  1.515638456102889 0.2882700110184686 0  0.09048297387599738 0.3637717362208066 0  2.150453692751374 0.2387066338105111 0  1.323782677156475 0.04897634338873398 0  1.409375 0.03715320121951221 0  1.406484531114799 0.1087852750766809 0  1.134375 0.03715320121951218 0  1.627401732573545 0.04552157221025036 0  0.446875 0.3713289093361426 0  2.045405893604797 0.1105340662939892 0  1.255408269734577 0.1577307500159216 0  2.028125 0.03707597992059326 0  0.04420832937638274 0.128125 0  0.5817551710628505 0.3702615006034757 0  0.1197849154434487 0.2663398672460083 0  1.248258025468107 0.2565907092181813 0  0.1300647302703173 0.0508462728378621 0  0.7738123537510222 0.2761231499240648 0  1.203125 0.0366132337404304 0  0.5444207041612499 0.111205399508622 0  0.8016457771828226 0.1964238426015905 0  2.072662025974815 0.2975086504196739 0  0.4019040438866802 0.2103993403217561 0  0.4677372330974851 0.04827477407630658 0  0.8677218578847617 0.1432970430140788 0  1.058011122005847 0.2758866204059919 0  0.4429405887974043 0.2746184809910084 0  0.5843750000000001 0.03726989681835222 0  0.6318596133730142 0.1128692182767254 0  0.4862628454464408 0.2957029785303028 0  0.7805186758662764 0.3673578380827891 0  1.887722846421017 0.1760882698830035 0  0.3498893058880703 0.256189258793856 0  1.472640588990488 0.1118278026240017 0  1.865937103925594 0.2604137786483804 0
[...]
<PointData  Scalars="f_43"> 
<DataArray  type="Float64"  Name="f_43"  format="ascii">4.2124068188808478e-01  4.5231272633821917e-01  2.3933812862041968e-09  -6.9852735289306540e-09  -3.6374130423469442e-01  -3.2669158937301934e-01  -3.4865075676988477e-01  -5.1586684598885324e-01  -9.3337074411616971e-01  8.6169764829111228e-01  1.9954116309367722e+00  3.9880562442798140e-01  -1.1602690745122310e+00  -5.1108196836650865e-01  -2.8029929427628075e-01  -2.5706608705779188e-01  -2.9430804290055124e-01  -4.6467758991325808e-01  -1.2558590565034158e-01  -1.0535395278694699e-01  -2.9455729136712144e-01  -1.4604063900685441e-01  -8.3470531142764856e-02  -5.1861212781484156e-01  -2.5828558205658648e-02  7.6362238591472809e-01  2.7941639810407383e-03  -2.0440246072750987e-01  -1.9790485249593728e-01  -5.1992641826058002e-04  1.9545710054754362e-02  7.5115368997056070e-03  2.8503187745993305e-02  1.0521322551811410e-02  1.3238073128331555e-02  1.7410559604308630e-02  2.1375596666141323e-02  -9.8825447488965226e-02  -7.8868501803331922e-02  7.9768094531365279e-03  2.1543149495408701e-02  1.3497295512299959e-02  -1.2266987794546588e-02  -4.6301748763968978e-09  -6.8293010829079959e-02  8.4429661404552549e-04  8.3252499654187621e-03  -1.5069452308062603e-01  7.1925270080201470e-04  1.0030796663619424e-10  -1.5178479665418509e-01  3.0475488402669046e-02  1.5680570845925255e-02  4.5140007498809106e-03  2.7476396626392310e-02  2.7951346495277352e-02  -4.3628289275417072e-02  -4.3339686177001673e-02  -1.9535880673726633e-01  3.6918343151658684e-01  3.4590587548350782e-01  -1.7663919676416664e-01  2.3844650168860847e-02  -4.5933772731315973e-03  -1.9744464478879644e-02  2.7080197805774409e-02  6.5952516253496270e-03  2.4327468856398778e-03  6.4034750623290183e-03  -2.5501915624758714e-01  1.4631219320549324e-02  5.5735652128696810e-03  3.5179904844318849e-02  -4.6778456699534454e-02  -2.5466791150440590e-02  -2.9916388116460546e-01  5.1788468760988293e-01  5.5218587283568410e-01  -1.8821675733266405e-01  -9.4046511733467023e-02  -2.1057258503604484e-01  7.1766055796763243e-03  -3.2606064187701095e-02  1.5875388735945097e-02  3.3427623858301746e-02  2.3505465441315494e-02  -2.9024362802764683e-03  -1.1274510070743340e-01  1.2395843483962400e-02  2.9008289883627809e-02  2.8006304322765015e-02  2.2640408593703188e-09  -2.0337223404833581e-02  1.0269749982212369e-02  -4.4822245698845613e-03  3.0063685796853129e-03  -3.5527474414507998e-01  -2.2289087402514060e-01  8.5270476490024588e-03  1.9919739308440713e-02  4.6127851529076452e-01  2.0236482988150978e-02  2.3785835460451935e-02  1.4947867756416894e-01  2.2798925920647251e-02  -1.9875329630213900e-01  -2.1476586633161140e-01  4.9085027343783005e-01  -1.6183887629804779e-02  2.6709304184116176e-03  3.8767580465039462e-03  -1.2173693154978049e-02  1.9703671878221785e-01  1.6415944107011339e-02  -2.1013994247424642e-01  -2.1510690268045402e-01  2.3043109482192542e-02  -2.2368171664326880e-01  1.3459783159651417e-02  -1.4974323484677457e-01  -6.4330018504718586e-03  -3.4646279975331816e-03  -1.6417399114990192e-01  -7.4813290996521023e-02  -2.2442192013109338e-01  2.1367020767837863e-01  8.9621407735189984e-01  7.1850972121345091e-01  -1.7961427654492124e-01  -4.9263332474182662e-03  1.3693750905662353e-02  2.3461753518974834e-02  2.0050977997597742e-02  2.8668130461531388e-03  -3.0672004773811004e-02  1.7389799758980848e-02  2.9589992721258365e-02  -1.8891277058954917e-01  2.0325601319375514e-02  2.0189604287487374e-02  -4.1958270146356821e-02  4.0905917226323923e-01  4.3342272122550279e-01  1.6001557396710806e-02  7.0109750949589981e-03  -2.6956279739329733e-02  1.4284115055916421e-02  2.1305455984195219e-02  -2.5642832543844763e-04  3.0817970922161403e-02  3.5171094311433018e-02  3.7357631819243241e-03  -1.2321713876742171e-01  -1.1439586731208835e-01  -5.2617394267981767e-02  -1.3884976196303120e-01  -1.0833565309186328e-01  1.9572517457005117e-01  4.3801502778694712e-01  3.1727379391932498e-03  -1.1339805359316984e-02  -1.8069161075249521e-01  2.9586928880064305e-02  1.4432107047516858e-02  4.6515370382450762e-03  -3.3281358588377830e-01  -3.4946198820411585e-03  5.0158652861389021e-03  4.0711956411805215e-03  -2.1283725516027363e-01  -2.4124728653680641e-01  -1.5199940072570767e-01  -1.6425057860859783e-02  1.0494546642631809e-03  2.7403852145469002e-04  -6.2447539562778282e-03  2.6501777175109022e-02  1.4037417068920182e-03  4.5828038965526558e-03  1.3933586739334231e-02  1.5705347064882511e-02  1.6922406393045434e-02  7.8413099875244471e-03  -5.9010139756450149e-02  -2.4436747501927383e-02  -3.5558863342929170e-01  -9.2199794207182273e-02  2.1092991524570195e-03  -4.4672625676876611e-02  -1.1891533690354004e-01  2.6613393777620946e-02  -1.6763049599648142e-01  -8.5570449288895789e-02  9.0098320069910490e-03  -1.4767110294041957e-01  -1.8073222340345499e-01  1.2875395175510644e-02  -3.5086976841826822e-01  -3.7735923979180824e-01  7.8832614056615746e-04  2.9658376912727141e-02  1.7398016948784751e-02  -1.9052173629259900e-02  -4.1838511600338496e-02  3.4535639423174634e-02  3.2300223298250101e-02  1.2590769273161849e-02  2.8348588655568514e-02  4.6523025796688200e-01  -6.2214267382952326e-02  -1.9101779995822485e-01  1.6752982082437019e-02  -4.1061047674754277e-02  -1.2986521756866298e-01  -1.2472739839151037e-02  -2.5891415093523940e-01  -1.9351047631521342e-02  -1.3742850435059339e-01  2.9002295676027589e-02  2.4601989058826858e-02  -1.3367689428888044e-01  -2.4910786005436028e-01  1.7800868721886291e-02  4.7393944264966913e-03  3.5329306683565816e-10  1.7137993119445808e-02  -1.8378438229877777e-02  4.5684985585344035e-01  3.2567550480271175e-03  1.1156667868897956e+00  -1.6022790262243420e-03  2.3938497892044858e-02  2.9383737967168005e-02  6.1717987316562660e-03  4.2428278949064224e-04  1.0818374594864956e-02  2.7882758626425235e-02  2.4579666813694716e-02  2.9244261389480535e-02  2.8494099538325521e-02  -4.1816968752522089e-02  -4.2817906878459822e-02  1.6385161471864230e-02  1.6714544343222771e-02  2.5072575773072776e-02  2.3610467966558173e-02  4.2262692220752327e-03  -9.2775883255394168e-02  1.0230083119992982e-02  2.9535020871323148e-02  1.4411298087718283e-03  1.1106385594634173e-02  -3.1099349405627245e-02  1.9378590234448562e-02  4.5840818134743555e-01  -7.4860059403251272e-02  1.9722695748440929e-02  -2.7918603961611679e-02  2.2879044049016117e-01  3.2027664283987650e-01  8.2246942547978049e-09  9.8811196853243646e-02  3.3698930298389090e-01  3.4234767681325023e-02  3.6632065559274586e-03  -5.2925419475707697e-03  -1.1043290782135881e-01  6.6920986663497883e-01  1.0030796663619424e-10  4.7650678610404583e-09  6.9568588716982027e-01  3.7893072824951378e-02  -1.4005873470401900e-01  3.1027954903779534e-02  4.0040631339293448e-01  5.3954921591728581e-03  2.2962504024661962e-02  2.8389667832253449e-03  6.1568739004882397e-03  -1.3725482620676613e-02  2.7723196580468082e-02  -1.9225181301517993e-01  1.1361179806943700e-02  2.1486702565482910e-02  1.1871686107360705e-02  6.3897100286510744e-01  -1.9129520088874380e-01  6.6474714109824906e-01  -1.9916143843308393e-02  3.7470629826042445e-01  -8.3746503839947375e-02  1.6407059157143949e-02  -2.8033707679270131e-01  -2.0635678089000794e-02  -1.1092566481745292e-04  -3.3182162107576557e-01  -2.0772487813423671e-01  4.4325328560609750e-03  1.7618304462771260e-02  -2.1628557369551504e-01  -1.9467782644446111e-01  -2.1283364678341479e-01  -2.2704204201091199e-01  -1.1112436693594192e-01  1.0475241608900010e-02  -3.5660542536780304e-01  -4.1905824925260442e-03  2.9949422975922561e-02  -1.6910752905078156e-02  5.3696340917727715e-03  -1.3229581114488509e-01  1.3162354912283888e-02  -1.3707171119434605e-01  -1.7649814163313260e-01  -1.2933479717588847e-01  7.5664979147414642e-03  -2.2682241629932245e-01  -1.9840964994703625e-01  8.3002350091954322e-03  -2.9158962522863197e-01  -2.3824417421223631e-01  2.5495489391368881e-02  4.1042932363552784e-03  1.2454666727525009e-02  -6.8248577198170457e-02  6.9365219343280450e-04  -3.4722126031994177e-01  -3.5731210953650805e-01  2.4668302088518008e-02  -3.6404314522267145e-01  9.0375247618635501e-01  3.2044973739322323e-02  8.3873758395428011e-01  6.8426750405585891e-04  -2.1370705963367171e-02  -4.3725608487715451e-02  4.9727328110559374e-03  2.3652090768281086e-03  -3.3138761990512310e-04  -1.3637249638776773e-02  1.9665337926684442e-02  1.0563508988950586e-02  -1.6079022029597392e-01  -2.9374960891165397e-01  2.4900761170057767e-02  -8.7347727389719895e-02  1.4668972285627933e-03  2.2621688867922155e-02  8.9754238884163021e-03  -2.0921619830090632e-04  1.7753133708820271e-02  -2.0118706861752317e-01  -2.0044717569640785e-01  2.2389662102715688e-02  2.9412914779464602e-02  2.9335886970709688e-02  9.1551510460125766e-04  3.9550064579610099e-03  4.1874589903323617e-01  -3.0360610779124581e-01  -3.8793180870191020e-02  3.2060880993886225e-03  2.7078759704928578e-02  1.6825114801454957e-02  -7.1259072112733274e-02  1.2237455107520306e-02  1.5659691296985297e-02  -4.7200711021813196e-02  2.0002472715775415e-02  3.5214679469480925e-02  1.0630367865633556e-02  2.9305811738860549e-01  4.8858957473063430e-03  -2.0999935784930290e-01  -2.0781094450326867e-01  -3.5822834002745642e-02  2.8082967944047321e-01  9.9019385924735623e-03  -1.2883673678367697e-02  1.4358808539668047e-02  -2.5048823327212244e-01  -2.2025496640158349e-02  4.3936240522954827e-03  -3.3409302374046526e-03  2.0731994939029132e-02  -2.6834317800079360e-01  -1.6124260955642780e-01  -8.7171104243219024e-03  -1.2435387067744136e-02  -3.5200054432296475e-03  4.2824108982678077e-03  -1.5266434062702657e-03  -1.3660011486339460e-03  4.1405948572593299e-01  -1.1946883135928647e-02  -1.5071274089644374e-01  -2.0978592346104286e-01  -1.3146467303627568e-01  1.5274238912212013e-02  -3.4159792935015382e-01  2.9816590717714152e-02  -6.3895125884970955e-02  2.0603444995542858e-02  1.8796566318019840e-02  1.5676484015162973e-02  -3.4628785909836070e-02  -1.1251490993546634e-03  2.9279527865323667e-02  2.9182763725485849e-02  2.8964051405454976e-02  4.4963763460140632e-01  4.2159745058305209e-01  -1.1143676583153838e-03  2.7648547497117547e-03  -8.9228627330613000e-02  -7.6002648795708339e-02  3.2942078462375301e-03  -6.4104450242574613e-03  5.5372895719810877e-01  -2.4481837450978597e-01  6.9062817905806373e-01  -1.7851102906448107e-01  2.8602708781961781e-02  -8.8433195541866530e-02  -3.7783078779803005e-02  -2.6154635444485319e-01  -2.7116171132437424e-03  7.5986120018209402e-01  -1.8763060048330363e-01  1.2346652583564145e-02  2.9481357539728661e-02  2.5105335249615035e-01  3.0021500304851755e-02  5.9424286479115129e-01  6.8892131400012206e-03  -1.2609644728016448e-01  1.2864844375523895e-02  -6.4978502303883615e-03  2.9463022496246171e-02  2.6573780922282547e-02  1.6033191860191000e-02  1.4202212100332619e-02  -2.0299077959615035e-02  2.5530709749753210e-02  2.3051337946479254e-02  -2.0053961566006248e-01  1.6704987072809131e-02  -2.1053005106701320e-01  -1.6715437278015477e-01  1.4235623264804530e-02  2.4305188104687632e-02  5.2650938196074348e-01  1.5180374605408017e-02  2.2943245155467402e-03  2.3117935391966282e-01  4.3321445405066072e-01  -2.6276168826816985e-02  4.9556172485457500e-01  8.3688971276539067e-03  -5.3746938094985749e-02  2.0566791224585178e-02  -2.0957247954204863e-01  2.6033781136036289e-02  2.4623638479366515e-02  -1.8184461745980904e-01  -7.4030957995764077e-02  4.1716659958551490e-03  -1.4892292794336035e-03  2.6790841822790328e-02  3.5346601856566292e-03  -3.6241630416456137e-02  6.5776246104509578e-03  1.6030759354163391e-04  2.3553456508536155e-02  8.8432219410241094e-03  -3.4691991932513438e-01  3.0409388382893689e-03  7.9732408880172755e-03  -5.2651657033525004e-04  2.9600699670479440e-03  9.5237706537945385e-03  2.7676132312607757e-03  -1.3987239491849057e-02  1.3921649493068495e-02  1.9199923446433974e-02  -7.3775975047760470e-03  -2.0549510669456666e-01  -1.9897105057565345e-01  9.5162717572824809e-02  -9.3930531534868897e-02  -1.1280653422097628e-01  -2.0130668695935081e-01  -1.7767010586736856e-01  1.3602863260581104e+00  -4.3317175937654044e-02  1.5281404219388836e-01  -3.3151123674785353e-03  3.7559765322915764e-04  -1.4349699609097870e-02  1.0834536890335156e-04  1.2636711534251711e-02  5.9862642489765380e-03  2.1650464729291020e-03  1.1386650317436607e-03  -1.4566289511743196e-02  -3.3261476977775400e-01  -2.0623929944440261e-01  9.5891508932781089e-03  -3.4161916996526126e-01  -2.6909204057496128e-01  2.5108778714646392e-02  -2.9069123604855951e-01  -3.5075586002248527e-01  2.6659910620477727e-02  8.4880097227279152e-03  1.1223558266956639e-02  7.7304681281826432e-03  9.5562292329420852e-03  -1.8830937784081604e-02  -2.2965683749942695e-01  3.8552479826880221e-03  1.3757543630763654e-02  8.9422946698278737e-03  2.4760599904940905e-03  1.7867905617920024e-02  1.1078886593614318e-03  5.2159059750204574e-03  3.5936564313983383e-03  3.1687544310935574e-02  2.2045386054669391e-02  -8.8616479409363541e-04  2.9097259541923538e-02  -1.3241101000077107e-01  -4.6143206769304099e-02  -5.9574504784044933e-02  2.4652136530615133e-02  -1.2135870509396445e-02  3.0641067180028200e-03  -3.6578873100158192e-02  -1.9108785740713016e-01  -1.7360020537339058e-01  -1.4884703137281710e-01  3.8601199137112863e-01  1.0708866456506656e-01  -1.1049370294234723e-01  -1.9577244765022636e-01  -1.9108627932630171e-01  -9.6249728526715206e-02  -5.5482609224680859e-02  -1.1886724710795442e-01  -1.6091415531270667e-01  -1.6642709856398266e-01  1.5807220884996309e-02  2.5552747774445810e-02  1.6342898044312729e-02  2.6174171411306440e-02  1.1675406568927189e-02  1.2368664011316444e-02  -4.3462755001384967e-02  1.1111130325167065e-02  -1.5668475944722798e-01  1.4438978213251023e-02  1.5595896981415320e-02  1.2908845021593087e-02  8.3042915122351312e-03  -1.1488069452298016e-03  1.2485559683972667e-02  -1.0069238106007052e-01  -7.3252521418729732e-02  -3.1596572502047221e-01  -3.4103291705000655e-01  -1.5928157467061041e-01  -2.4284373194963741e-02  8.4349946137025518e-03  -4.9308847511084627e-03  2.7804909313192003e-02  3.8950685793502182e-01  -3.4543343363980209e-03  2.7624577486121828e-02  3.3281501684288180e-02  -1.0545038861414538e-01  1.7648124543219644e-02  2.8387025242144220e-01  3.3783014616361531e-02  2.8981508489255389e-02  2.0539214085721377e-03  3.0841590939508647e-02  -1.5407258333768556e-02  -1.4413348985554139e-01  2.0944309268012247e-03  -7.1839727239538395e-02  2.0269817953630861e-02  -3.3715787919716246e-03  1.2677364787457527e-03  -1.6685624771935315e-01  2.2051841664686898e-02  3.0823370818790542e-02  7.3369723819071808e-01  -1.9564459852753846e-01  -1.8361253344000766e-02  2.3291343807517580e-02  -2.6585987797241800e-01  -5.9721317823716612e-02  8.4178669718578784e-03  6.5652681948664016e-03  1.7135736784478283e-02  7.9725398094315214e-01  -2.5702341630365520e-02  -3.4660210668896177e-03  1.4597736742258775e-02  1.4856267156707207e-02  3.6426047286003893e-01  -2.7659769516018257e-04  3.2599873500395937e-01  -4.7747985811547607e-02  -1.6036082777716252e-03  -3.6299641077504075e-01  -3.6910074705361179e-01  3.3684499092090370e-02  -3.5776146337777265e-01  -3.2858950487201957e-02  3.8176119800819315e-02  3.0401805034530210e-03  3.0194138591108494e-02  1.6691742949638017e-02  -4.2958629786278481e-03  3.4969446507613598e-03  -2.0221837864056989e-02  -5.0010196872509752e-02  1.8113532667037066e-02  -1.9820421365728039e-01  1.9749300850869286e-02  2.9400430659281687e-02  2.6532138667650355e-02  -7.7679902349820626e-02  -1.2481821219734038e-01  -1.0852234458023979e-01  -8.6896114257247303e-02  -3.3142279200653645e-03  1.9360652853388963e-02  -2.6789924233555024e-01  -1.7403249275078861e-01  -1.9866316052609118e-01  1.3381882914577420e-02  5.7893485572261316e-01  8.9877887588889187e-03  -8.8916148819011311e-03  -1.1160692860700670e-01  2.1411221426717524e-02  -2.4101844219013113e-01  3.3825961698458862e-02  -3.4995140766089927e-01  -5.5665981305942939e-03  -1.5399391259484466e-01  -1.8366504379343726e-01  -2.1389618377482778e-01  1.7823922946649900e-02  1.2381842910267895e-02  1.5892893966644936e-02  2.8972288810102324e-02  -1.3133897964840775e-02  -9.5629798309684544e-02  1.1189679856754526e+00  1.6729254791629809e-02  -4.3986715992460824e-02  -3.2375767432481489e-01  -1.8687081153335665e-02  -1.8719006151636942e-02  1.7216872401889523e-02  -5.8557269540908908e-03  2.8514953121962845e-02  3.2826155203486349e-02  5.0816145293095917e-03  8.1503959424871386e-04  8.4169234897741186e-03  -4.3538818036441329e-02  -4.8700348162055623e-02  4.5271277879150945e-01  4.5097081780227993e-01  1.1840669864866767e-02  -2.7970585497347916e-01  1.4948880043300685e-02  2.1479869908284997e-03  2.8769190154345377e-02  3.0579160592554633e-03  -2.2572535633582407e-02  2.0750453343586672e-02  5.9888188526218233e-01  -4.4149783595837801e-02  2.3799690000802960e-02  6.6282210858346291e-02  2.4018386872020081e-01  -1.2640944083470743e-01  1.6032389904651972e-02  3.4003832862588939e-04  -2.5502862961849526e-01  -2.3763276616888823e-01  -3.5231904627664223e-01  2.9274123145422604e-02  3.6373276312843178e-02  -2.7238954123580444e-01  4.3539769558478514e-01  7.4718930654661919e-01  4.3356911653873479e-03  -1.5203008290659581e-01  2.3995935545864277e-02  -2.3780500206645950e-02  2.7258754931499308e-02  2.9762115390213374e-02  -4.6301748763968978e-09  -2.1285973100726599e-01  2.7222568884918128e-03  -8.4765241323267039e-05  -2.1807812462065065e-01  -2.0614333893722817e-01  3.4188921404802830e-03  -1.4374544929434444e-01  3.8560205641457096e-01  3.7043284616085931e-01  2.5324334100261178e-02  1.9398634590188261e-02  2.2918713024580917e-02  3.1405662892188546e-02  1.9295373901044386e-02  -1.2901462609084973e-03  3.6583588821040028e-02  -1.8548593790535420e-01  1.8025502094737411e-02  2.8075695614385433e-02  8.6139218328089278e-03  5.1340902534486345e-03  -7.5592621941668631e-02  -2.2743934787113410e-01  1.6087735310364566e-02  -1.3057545590309183e-01  4.0380554033774746e-02  2.2640408593703188e-09  -2.0550029935527379e-02  -1.3001895819008749e-02  -1.9819355887654964e-02  -1.5470431905954063e-01  2.9457212134312044e-02  -2.7028952554470864e-02  1.0580955958189081e-02  -4.6210566148886054e-03  -2.3963443978021436e-02  -1.9643020550782070e-02  2.0723930120284530e-03  -3.7798398050952350e-02  -3.7861990390439131e-02  -4.1589183072783399e-02  -2.8914950746645935e-03  7.2686476053245306e-03  -4.0687924167896940e-02  3.9039797046348906e-01  -4.0498848420327180e-02  2.5949698069729684e-02  -5.1925664333600748e-02  5.0804389778536640e-03  6.4680877810384231e-03  3.5703575294657110e-03  -2.1127327310301688e-01  2.6295766042278314e-02  4.2892397132428574e-03  -1.0470202405011855e-02  -2.3427890199404150e-01  2.5667390229525015e-02  2.9302570530416638e-02  2.8321274482773547e-02  -1.9700370537315218e-01  -2.0977792396627781e-01  2.2241639578720697e-02  -2.1895875913075413e-01  -2.5133471612753627e-01  -2.4624928301762145e-01  1.3966384150668684e-02  3.6304808548694389e-03  1.1873053262179108e-02  -4.2551104843192467e-01  -2.0244511902409189e-02  -1.3918224276309404e-01  2.9522734357429633e-02  3.1600890242184748e-01  -2.0317486556484139e-02  -1.7896575334481083e-02  -1.1354504582751415e-01  -4.6301748763968978e-09  1.0741049580275055e+00  8.7460089997941781e-01  -1.6649073391851458e-02  -6.3219706098847361e-02  -1.4203319497519434e-01  1.9681915403300845e-02  1.1369133860716798e-02  -1.3270346586315804e-01  1.5142538348449440e-02  -1.8754700157632143e-01  5.1856459381042619e-01  4.6402967400972428e-01  4.6855958410123305e-01  1.7293231961474392e-02  6.9172751419968939e-03  2.0385376007682650e-02  2.6718438108416346e-02  2.1225722270972320e-02  -9.5145684314519195e-04  5.2523407432015834e-01  1.5706474171925562e-02  -3.8232609015327390e-01  2.4378358089851705e-02  2.1111307559222466e-02  2.8096340242909367e-02  1.6701076312918409e-02  1.6974318404115285e-02  -1.982446953395