<?xml version="1.0"?>
<VTKFile type="UnstructuredGrid"  version="0.1"  >
<UnstructuredGrid>
<Piece  NumberOfPoints="2426" NumberOfCells="4534">
<Points>
<DataArray  type="Float64"  NumberOfComponents="3"  format="ascii">0 0.41 0  0 0 0  2.2 0 0  2.2 0.41 0  0.2404508497187474 0.2293892626146237 0  0.25 0.2 0  0.2404508497187474 0.1706107373853764 0  0.2154508497187474 0.1524471741852423 0  0.1845491502812526 0.1524471741852423 0  0.1595491502812526 0.1706107373853764 0  0.15 0.2 0  0.1595491502812526 0.2293892626146237 0  0.1845491502812527 0.2475528258147577 0  0.2154508497187474 0.2475528258147577 0  0.5404508497187474 0.2293892626146237 0  0.55 0.2 0  0.5404508497187474 0.1706107373853764 0  0.5154508497187473 0.1524471741852423 0  0.4845491502812526 0.1524471741852423 0  0.4595491502812526 0.1706107373853764 0  0.45 0.2 0  0.4595491502812526 0.2293892626146237 0  0.4845491502812526 0.2475528258147577 0  0.5154508497187473 0.2475528258147577 0  1.1 0 0  0 0.205 0  1.1 0.41 0  0.55 0 0  0.55 0.41 0  0.275 0 0  0.275 0.41 0  1.65 0.41 0  1.65 0 0  1.375 0 0  1.375 0.41 0  1.925 0 0  1.925 0.41 0  0.8250000000000001 0.41 0  0.8250000000000001 0 0  1.5125 0.205 0  1.7875 0.205 0  0.9625000000000001 0.205 0  1.2375 0.205 0  2.2 0.205 0  0.7560964076246335 0.2151713709677419 0  1.99375 0.2152743902439024 0  2.0625 0 0  0.6875 0 0  2.0625 0.41 0  2.2 0.3075 0  0.6875 0.41 0  1.7875 0.41 0  1.375 0.1486128048780488 0  1.5125 0 0  1.7875 0 0  1.5125 0.41 0  0.9625000000000001 0 0  0.9625000000000001 0.41 0  0.4125 0 0  0.1375 0 0  0.1375 0.41 0  0.4125 0.41 0  1.2375 0 0  1.1 0.1486128048780487 0  1.2375 0.41 0  1.65 0.1486128048780487 0  1.126715909090909 0.2793064024390244 0  1.676715909090909 0.2793064024390244 0  1.348284090909091 0.2793064024390244 0  0.34375 0.3032389320646208 0  1.894702181800738 0.1282910975492754 0  2.092797818199262 0.1282910975492754 0  1.85625 0.3075 0  0.8630851210521902 0.286932093388664 0  0.89375 0.1025 0  0.35 0.1090282786671641 0  0 0.3075 0  0 0.1025 0  0.6526217841291382 0.288229645480046 0  0.7562500000000001 0.09660248895515888 0  0.6568633732316684 0.1557582854763441 0  2.099172119769978 0.25625 0  1.002356446954348 0.1010393851523063 0  1.99375 0.08395950269330846 0  1.459960956013612 0.3075 0  1.569025960719943 0.2986889805672169 0  1.03125 0.3278689922742084 0  0.75625 0.3247156761655783 0  1.959375 0.3126371951219512 0  1.749222215368287 0.1025 0  1.275777784631713 0.1025 0  2.2 0.1025 0  1.225938124459196 0.3075 0  1.550777784631713 0.1025 0  1.44375 0.07430640243902442 0  1.16875 0.07430640243902437 0  0.3528655045338512 0.2063263890916129 0  0.5890337614812103 0.08775733857679162 0  0.8504912436891263 0.190072835691683 0  1.899250267340833 0.2229966846119207 0  0.1020898364287272 0.3140258291809757 0  1.766482954545455 0.2934032012195123 0  1.051658316544432 0.2265720188842194 0  0.2 0.3400647632937836 0  1.421109702350723 0.2261157654379721 0  0.4812500000000001 0.41 0  0.4324401666997539 0.3216425986889796 0  0.098916018031319 0.09171660955420841 0  0.9508742791313441 0.2921736960864468 0  2.13125 0 0  2.118919042110979 0.3422084711244843 0  1.30625 0.41 0  0.20625 0 0  1.597888256393107 0.2173787389261347 0  0.4812500000000001 0 0  0.4324082967851086 0.08384041677422771 0  1.829299675393195 0.07400700849299596 0  0.568219932524165 0.3212274660843853 0  1.71875 0.41 0  0.268005226542646 0.08512186835670006 0  1.16875 0.41 0  2.038220665644273 0.332420740103091 0  0.6678017527842831 0.07701763866051195 0  0.89375 0.41 0  0.5111435174287687 0.07335351331957608 0  0.176193934632343 0.0734896648625108 0  0.07390688010811153 0.1697064032433452 0  0.05452951551825875 0.25625 0  0.61875 0.41 0  1.452769549894695 0.1548122580621249 0  1.369219062229598 0.07430640243902442 0  1.30625 0 0  1.720943423819132 0.1714577452753128 0  1.157188124459196 0.205 0  1.094219062229598 0.07430640243902437 0  1.304056576180868 0.1714577452753128 0  1.67579304192913 0.07430640243902437 0  0.2672907219039591 0.3037570723459566 0  1.209670467133757 0.1362100266964769 0  1.58125 0 0  1.03125 0 0  0.06875000000000001 0.41 0  0 0.35875 0  1.58125 0.41 0  1.631724228912893 0.3381867502687533 0  0.8240147050827157 0.1225233169495944 0  1.825608881788174 0.14499488549201 0  1.85625 0 0  1.44375 0 0  1.44375 0.41 0  1.85625 0.41 0  2.13125 0.41 0  0.7562500000000001 0.41 0  0.7562500000000001 0 0  0.89375 0 0  0.34375 0 0  0.34375 0.41 0  0.20625 0.41 0  0.06875000000000001 0 0  1.16875 0 0  1.03125 0.41 0  0.61875 0 0  1.71875 0 0  1.99375 0 0  1.99375 0.41 0  0.3972301426712326 0.2593842555611471 0  1.340625 0.3489494290853124 0  1.134375 0.3489494290853123 0  1.700180620188976 0.3438659752031281 0  0.5003922072260507 0.341765274319271 0  0.6212513815748759 0.2209216137134851 0  0.6885607720119526 0.215393731583638 0  1.033412357328477 0.1612902025713047 0  2.135782184673599 0.07126652247502523 0  1.668441847249787 0.2129203728327609 0  1.295782514339747 0.2378437748815763 0  1.409375 0.3520314716057996 0  2.129248544730567 0.1906135162504124 0  2.060771381434487 0.1989445750470348 0  2.013252586573865 0.1496169464686054 0  1.942766402200229 0.1734448904596831 0  1.895522487186454 0.06076163953489683 0  2.069553871656643 0.06605731020975725 0  0.9281250000000001 0.3539050257418612 0  1.274680914880868 0.3520219391081363 0  0.3030138498135347 0.2488370856812789 0  0.8223773249563684 0.341761430177996 0  0.9018164060227267 0.2326477848736739 0  0.8143027982392851 0.2440265179987191 0  0.7225087161029304 0.2699907246386231 0  1.614713220494657 0.09473434380863296 0  0.378125 0.3566194660323104 0  0.309375 0.3566194660323104 0  1.72990325744076 0.2380068107952482 0  0.6915936999299305 0.3429472631234433 0  0.6268087624932918 0.3466455500035671 0  1.356580098625191 0.2120393231351682 0  0.3060160055995138 0.1590148921620778 0  0.3954648733249218 0.156380553890791 0  2.034370752044885 0.2668681600792073 0  1.51768709249349 0.3426260931494756 0  1.561883724969884 0.1650446847858835 0  1.197344062229598 0.2523725417393646 0  0.9281250000000001 0.05124999999999999 0  1.804085235518364 0.3468178408964637 0  1.817887819205233 0.2589243285818559 0  0.9107805776841645 0.1653834539923287 0  1.905897727272727 0.3485060975609756 0  0 0.05125 0  0.844212276491354 0.0614201194265309 0  0.378125 0.05244637078450034 0  1.008571329007178 0.2705955969954818 0  0.7724048032149464 0.1559079561351474 0  0.7203054377831548 0.04941826955193545 0  1.192836486056382 0.3562350748565544 0  0.5967108020713719 0.1479294686523888 0  1.28257088594801 0.2944411014911587 0  0.7041890234548132 0.1222025174424443 0  1.474860187679412 0.2504218616229368 0  1.406767003493824 0.2829282258560709 0  0.3201325899091991 0.05890121548989159 0  0.5979220912872258 0.2727591995766724 0  1.845656689180403 0.1998310418452388 0  2.144958525570388 0.2909790873294231 0  2.2 0.15375 0  1.57794966442982 0.3540357145964566 0  0.9483181579620558 0.1214693369582054 0  0.0496154796471391 0.333125 0  1.508991196088596 0.1421783375065625 0  0.09776612425612034 0.2204896805326566 0  1.50436820029908 0.06143401634903343 0  1.223857000523521 0.0823554862453532 0  0.2531953886959507 0.3582003209055908 0  1.153316824384777 0.1289850171317837 0  2.148922302309752 0.1258841779285271 0  1.621993280276081 0.2841214267927899 0  1.550118654119087 0.2461998729100966 0  1.327182649291491 0.1216967252533594 0  1.753125 0.04556020050186112 0  1.271875 0.04556020050186116 0  0.9824282234771738 0.05051969257615314 0  1.039510847866381 0.05683351822678641 0  1.94956388244759 0.1180512551534177 0  1.949997712993411 0.04965831614304109 0  1.771961817615021 0.1530278789497521 0  1.909246823951428 0.2812757146784527 0  1.101974016627944 0.2038045618205013 0  0.7906250000000001 0.0444674049654372 0  1.948575539857022 0.2445328248721197 0  1.697271520964565 0.1233917627620729 0  1.065625 0.3689344961371042 0  1.085849084308977 0.3170853572226867 0  0.9840604787624379 0.3582077516409966 0  1.577403511714593 0.05463601888079143 0  0.05622663515370135 0.05493816910862376 0  0.8762396958822678 0.3392249777398821 0  1.751571320346033 0.3651102912045228 0  1.055327852410105 0.111864799513911 0  0.1583785085108421 0.2994699345738728 0  0.1455283439499995 0.3542795598723423 0  2.2 0.35875 0  0.225705107073232 0.05084786997482401 0  0.1455852234589313 0.1166494778469164 0  1.466879772203159 0.3611261772912453 0  1.990280163552011 0.3564754268533217 0  1.17471064520912 0.2990917256188288 0  0.7221925551074015 0.1739659241003985 0  0 0.25625 0  2.2 0.25625 0  2.2 0.05125 0  0 0.15375 0  1.853978576207987 0.35875 0  0.21965520498276 0.1015543880164422 0  1.515638456102889 0.2882700110184686 0  0.09048297387599738 0.3637717362208066 0  2.150453692751374 0.2387066338105111 0  1.323782677156475 0.04897634338873398 0  1.409375 0.03715320121951221 0  1.406484531114799 0.1087852750766809 0  1.134375 0.03715320121951218 0  1.627401732573545 0.04552157221025036 0  0.446875 0.3713289093361426 0  2.045405893604797 0.1105340662939892 0  1.255408269734577 0.1577307500159216 0  2.028125 0.03707597992059326 0  0.04420832937638274 0.128125 0  0.5817551710628505 0.3702615006034757 0  0.1197849154434487 0.2663398672460083 0  1.248258025468107 0.2565907092181813 0  0.1300647302703173 0.0508462728378621 0  0.7738123537510222 0.2761231499240648 0  1.203125 0.0366132337404304 0  0.5444207041612499 0.111205399508622 0  0.8016457771828226 0.1964238426015905 0  2.072662025974815 0.2975086504196739 0  0.4019040438866802 0.2103993403217561 0  0.4677372330974851 0.04827477407630658 0  0.8677218578847617 0.1432970430140788 0  1.058011122005847 0.2758866204059919 0  0.4429405887974043 0.2746184809910084 0  0.5843750000000001 0.03726989681835222 0  0.6318596133730142 0.1128692182767254 0  0.4862628454464408 0.2957029785303028 0  0.7805186758662764 0.3673578380827891 0  1.887722846421017 0.1760882698830035 0  0.3498893058880703 0.256189258793856 0  1.472640588990488 0.1118278026240017 0  1.865937103925594 0.2604137786483804 0
[...]
<PointData  Scalars="f_43"> 
<DataArray  type="Float64"  Name="f_43"  format="ascii">4.2043384840681480e-01  4.5206932555012386e-01  1.4792576328852326e-09  1.0660289669922183e-09  -3.6391170091771019e-01  -3.2593730463719739e-01  -3.4754672846531454e-01  -5.1511112081901178e-01  -9.3143190351627769e-01  8.6309078959065466e-01  1.9950256272040670e+00  3.9688697323362077e-01  -1.1613252069359370e+00  -5.1017688702727193e-01  -2.7442513378771033e-01  -2.5706480117437758e-01  -3.0000411641245067e-01  -4.7465445368726283e-01  -1.5142487758943479e-01  -1.2418184640177153e-01  -2.9682182286003889e-01  -1.3082124391760744e-01  -5.3200564399739560e-02  -5.0493646487523003e-01  -1.2208841959624987e-02  7.6316155765569249e-01  -4.1994438189782695e-03  -2.1276749444611975e-01  -1.9017903692433658e-01  -1.6146265286890210e-03  1.8106718386652738e-02  6.4743077091892809e-02  6.1135511279916767e-02  3.2253311148342810e-02  4.2118304260178617e-02  2.9835675568727908e-02  2.9897033159965364e-02  -1.0456790748935955e-01  -7.6467307248099289e-02  5.7040817381502636e-02  4.5921556235165417e-02  2.0245945105136803e-02  1.9581066108133049e-02  2.6702018875582705e-09  -7.4911285291647742e-02  2.2540599165840829e-02  1.4943870508693334e-02  -1.6216469034590378e-01  1.5105817262917940e-02  1.0835092501962220e-09  -1.4083317338749102e-01  4.6339366877048281e-02  4.1732019924377417e-02  6.8181560298299873e-02  4.4542816798926431e-02  5.6864269026999981e-02  -4.6150202097862796e-02  -5.5227687126353404e-02  -1.9857054728967508e-01  3.6875578802596054e-01  3.4519974755477123e-01  -1.7728762160479503e-01  3.7104967873973049e-02  2.1627922800104154e-02  2.5255018403862080e-02  5.8852466525012408e-02  2.1347507721472189e-03  5.9385568595066898e-02  3.9645282295442966e-02  -2.6398884339056683e-01  3.3294205688419301e-02  1.1709284445257871e-02  3.7784605114883338e-02  -5.0812465114769154e-02  -2.3782839244266274e-02  -2.9750900413532638e-01  5.1710544582035678e-01  5.5196718850302029e-01  -1.7569445658803090e-01  -9.3839586650017875e-02  -2.3021347148259891e-01  1.0984131773392754e-02  -3.3562010942283706e-02  2.2562857431912220e-02  4.4661123243398451e-02  6.1786205515046544e-02  -1.5621042049517829e-02  -1.1119646579206022e-01  2.6229718861600672e-02  4.9073636789519447e-02  2.7168899079320321e-02  -1.9267947426215204e-09  2.1096300432558768e-02  6.6249605257931249e-02  4.9917717194380429e-02  2.7192771151371586e-02  -3.6343565272765799e-01  -2.3499039915327463e-01  8.4100774609262418e-03  3.3054737920113327e-02  4.6049895557313991e-01  4.8917173259396839e-02  1.9456647986505583e-02  1.4866472714833665e-01  4.0944318290639437e-02  -1.9577176566803112e-01  -2.1255970940220370e-01  4.9066037680145347e-01  -2.1042324573622973e-02  7.4593983681920696e-03  8.7720624928252396e-03  3.7644871684335605e-02  1.9634589375796788e-01  6.2848229487765875e-02  -2.1544176150941813e-01  -2.2332565448465896e-01  4.0014003466584638e-02  -2.1276585295141376e-01  5.5745537110915219e-02  -1.5008258701623564e-01  1.0128264566919835e-02  1.7597499558127547e-02  -1.7594214838670996e-01  -8.5687954858600091e-02  -2.3360071791972067e-01  2.1327173629163307e-01  8.9595680698097391e-01  7.1783376320308634e-01  -1.6819222087190580e-01  5.8287503446037205e-02  2.6735384738195520e-02  2.9274571543448435e-02  5.2846302743394191e-02  1.1927687435458219e-02  -1.7635587151639744e-02  1.3707377235247101e-02  5.7353342274103526e-02  -1.9091021940519781e-01  1.9476362226347608e-02  6.8998676901444136e-02  -4.3156713241429855e-02  4.0827458420725449e-01  4.3261294617550061e-01  6.5812945686546734e-02  6.6842919758781497e-02  -2.2092737742700107e-02  4.1027806974611294e-02  3.7007692396432736e-02  5.2249333818043663e-02  4.6082771373624605e-02  3.7653860002950498e-02  7.4430388948952706e-03  -1.1907847998220542e-01  -1.1985902342330584e-01  -4.9302135668886943e-02  -1.4074627883608212e-01  -1.1018885382910372e-01  1.9488994257770631e-01  4.3773828105805790e-01  2.5350350534319520e-02  -2.4623067871381073e-02  -1.9211175411205897e-01  5.2356996401044978e-02  2.2490799049042259e-02  2.2275005909504382e-02  -3.4827572570649523e-01  4.1597641075357440e-02  2.6704094659011903e-03  5.8437215340655817e-02  -2.0642225625371491e-01  -2.3007943427757341e-01  -1.4750001269470386e-01  3.6739759018951986e-03  6.9987578923514388e-03  5.8484300677714568e-02  3.9988282115914216e-02  4.1805779681048386e-02  7.7325068451761774e-03  1.5210693957900697e-02  2.0404044961467853e-02  2.8153754240822108e-02  3.2977573650774132e-02  1.4235452461323104e-02  -7.0544608084634350e-02  3.2986929960989717e-02  -3.6124166402527791e-01  -9.9048587453314810e-02  1.1876626156673934e-02  -5.3864602147194102e-02  -1.2326119619732058e-01  6.4004011158106069e-02  -1.6994772901870686e-01  -8.7993143319904391e-02  5.2726572402072666e-02  -1.3681525084077015e-01  -1.6850460254933650e-01  3.8382599693612150e-02  -3.4714429619864751e-01  -3.7985246298685194e-01  1.8043673861531939e-02  5.4158268098300474e-02  6.2120284052009950e-02  1.3472484555353652e-02  -4.1169987230447402e-02  4.4089196509709744e-02  4.2507793324834842e-02  7.6998969409999016e-03  3.2028418780329665e-02  4.6499807272333804e-01  -5.7123302620384647e-02  -1.9365035643026601e-01  9.7981935045045928e-03  -2.8005682835346848e-02  -1.3948764846236897e-01  1.3443379067351826e-02  -2.7637797922331170e-01  3.5287590053966339e-02  -1.3895431349862966e-01  4.8269984470039058e-02  4.0867969111156317e-02  -1.3481868746386685e-01  -2.3311788990155860e-01  3.9162110756730206e-02  5.9755887875221217e-03  -1.7892197559948493e-09  6.5702652069245762e-02  -1.9004587423470175e-02  4.5604282741502372e-01  6.2047624620617359e-02  1.1150945389760860e+00  6.6455131428961270e-02  3.8280079548417896e-02  2.8044336797900055e-02  2.3078484408999230e-02  5.5941117385527568e-03  6.3873613597605378e-02  6.1697153763016092e-02  2.5214070884810130e-02  4.8324179746998486e-02  3.3876979613890648e-02  -4.7015443018232149e-02  -4.4815625247983916e-02  2.7352682989581944e-02  2.7234047892850052e-02  4.7145382922881979e-02  3.1808073406433823e-02  1.4519244952166747e-02  -9.3566693369636661e-02  2.7522800519861636e-02  5.4752879221631717e-02  -1.2204400036808196e-02  -1.6065936763722047e-03  -4.2851690140730751e-02  6.9226968966021651e-02  4.5817471159400436e-01  -8.6079209309544158e-02  5.1146509747987706e-02  -1.6836303908344220e-02  2.2806599668871527e-01  3.1954410253815457e-01  -5.1513703927269151e-09  9.8053706526457923e-02  3.3705293769997435e-01  4.6437579437301195e-02  2.2820982842749634e-02  9.5367755211930721e-03  -1.0741630222405234e-01  6.6855087041260497e-01  1.0835092501962220e-09  9.5951047372127708e-10  6.9540286805214913e-01  3.7940414200762378e-02  -1.4022085526196396e-01  5.4133888515589042e-02  3.9962422789116564e-01  5.4009036979099029e-03  2.4923999058010907e-02  3.9115508063473720e-02  4.2046512862485910e-02  7.0047546059404083e-03  6.4102174078659424e-02  -1.9108547679221494e-01  1.6883435494153783e-02  7.9270834446405012e-03  1.8770489672863246e-02  6.3876033878267968e-01  -1.8147326536570180e-01  6.6395014670613506e-01  3.1778421410755320e-02  3.7434950368240577e-01  -9.3354411544290458e-02  3.6861271802455006e-02  -2.9185018421168890e-01  -2.0603077480213453e-02  1.3856788143492803e-02  -3.4069566155353470e-01  -2.1355774603996236e-01  2.4951062401524417e-03  4.6894955569760505e-03  -2.0550488133556127e-01  -2.0460292401302771e-01  -2.2824452059030953e-01  -2.1139877835724477e-01  -1.1066666296294587e-01  3.4284981748485766e-02  -3.7460880050426021e-01  5.8917587720641977e-02  3.6832788986298978e-02  -9.0400899679412925e-03  5.0505821137347910e-02  -1.3290048602450097e-01  4.2755027077143327e-02  -1.2884048254939998e-01  -1.8859391951912563e-01  -1.2165570352952626e-01  1.6174330379364547e-02  -2.4136201082711647e-01  -2.1388721393872182e-01  5.4312041438290951e-02  -2.7953534979300876e-01  -2.4364056714044202e-01  4.7703594197400827e-02  1.0345198277103946e-02  4.5610159099279311e-02  -7.4910246260450092e-02  1.8741599663786166e-02  -3.5007073188495097e-01  -3.5726223712931665e-01  6.1656399320759142e-02  -3.6169835390906407e-01  9.0377150803197459e-01  4.3166319445928768e-02  8.3826586783739865e-01  2.2881519171495598e-02  -1.9246605208419636e-02  -5.0859262839018288e-02  4.0938079221101370e-03  1.1196581976313878e-02  1.3529019595588533e-02  -2.2975946889079807e-02  2.3500796304396391e-02  6.6754205482619386e-02  -1.4838117511937773e-01  -2.9752125677584806e-01  4.4272549027569309e-02  -9.6487741922260131e-02  2.1072542210181729e-02  3.7860310609656549e-02  2.0977012463854028e-02  6.1342020994759418e-02  6.0506978626656292e-02  -1.9413832020908259e-01  -2.0435027247024387e-01  6.1872021310803278e-02  5.6566352556413804e-02  5.3619932995755258e-02  4.3869025079605042e-03  4.3878519171955807e-03  4.1794249822879659e-01  -3.0067401416489492e-01  -3.9906173476106033e-02  6.1511548372837711e-02  4.3359674873401116e-02  3.6030487759845860e-02  -6.8555233465848145e-02  7.0051440125383738e-02  2.7588022001356773e-02  -4.2424576371816361e-02  4.7290012695835005e-03  4.1871837646345778e-02  5.3096945683555802e-02  2.9251277795336750e-01  6.3667106062586173e-02  -2.1672963401060211e-01  -2.1577744132135385e-01  -2.8899477779923306e-02  2.8011571290079429e-01  1.5661984255962630e-02  -2.6365489918784728e-02  6.1631015696025457e-02  -2.3917723160304172e-01  2.3734639282012936e-02  1.1563477128645057e-02  5.8625148964266557e-02  6.3612713074292310e-02  -2.5936075332936553e-01  -1.5258633752119385e-01  1.5543083566076353e-02  9.0266163893891367e-03  1.0321331835659801e-03  2.6993860034859318e-02  -2.4141705358318132e-03  4.2864516985361848e-03  4.1372377715300734e-01  4.0774869493669361e-02  -1.6286342924740460e-01  -1.9708008195249849e-01  -1.2695208475293804e-01  2.3015488194076728e-02  -3.4044125455145674e-01  3.3717155177179929e-02  -5.9820965835006061e-02  3.6950996253873436e-02  3.3522494950431088e-02  2.9546701598565785e-02  -3.7577928953742949e-02  6.4474485687254932e-02  5.3107483131132123e-02  5.9016060692686528e-02  5.9272707720608449e-02  4.4939137101409526e-01  4.2078759664785542e-01  1.7711129784105467e-02  5.1987246440686731e-02  -9.8394859720760869e-02  -7.7445281078255004e-02  9.7317280896665800e-03  -3.3447844298645714e-03  5.5295502860764434e-01  -2.6047414598033480e-01  6.9047871604031030e-01  -1.8304390425495451e-01  4.5585884986628251e-02  -8.0233562498738253e-02  -4.8012979770794086e-02  -2.6454742252078994e-01  5.9241463636964531e-02  7.5956468851353565e-01  -1.8726549587672528e-01  1.8294776815527925e-02  4.3529890313894010e-02  2.5030679762830710e-01  5.5881433591404621e-02  5.9350729776500744e-01  6.9589916139455990e-02  -1.3192310539296462e-01  5.0446171669721242e-02  2.1979353208834249e-02  5.1213847777343030e-02  1.6560651419810186e-02  3.2983721700515306e-02  2.7087590350796994e-02  -2.6698116347958095e-03  5.6049493134378396e-02  2.7654367806311874e-02  -2.0820032153418197e-01  2.4714376567269117e-02  -1.9133925203801327e-01  -1.7910853649533293e-01  3.0035931596338498e-02  2.1270022378332781e-02  5.2631144464475887e-01  6.5776831646385078e-02  6.2372646769093897e-02  2.3056796261432047e-01  4.3294521268619873e-01  -3.8995215029082542e-02  4.9534372091759432e-01  6.6884581197517015e-02  -4.6401652148912897e-02  6.1816308778913594e-02  -2.1586966904389943e-01  5.8461823676745288e-02  4.0793600984848688e-02  -1.9286671285390350e-01  -8.5408991241307727e-02  1.4941031763567883e-02  1.8876331628349358e-02  2.4979713914408484e-02  9.9051237382382293e-03  -3.1906472378349635e-02  9.0423311144250847e-03  4.0230669128148043e-03  4.8316589320207076e-02  6.9516258340871717e-02  -3.4840776063224521e-01  3.7457619039890089e-02  -3.4940013519221737e-03  3.8411055664482750e-03  8.7390818134044888e-03  2.6614541394749499e-02  9.8744765987050665e-03  1.2966615055143718e-02  3.7269074296618340e-02  4.3989576974737994e-02  -8.4646620003572572e-03  -2.0099748104381998e-01  -1.9570821967604732e-01  9.4272488384148895e-02  -9.7717409778344158e-02  -1.1870734834726239e-01  -1.9600697879652076e-01  -1.7842510676571169e-01  1.3600162987357405e+00  -4.7440871386179986e-02  1.5189974989543562e-01  7.6003422746902718e-03  3.1706212116789450e-03  3.8169666435983733e-02  4.0685682175140854e-02  4.1724437845181012e-02  4.7533859060509154e-03  5.1992311902294690e-02  8.5639109961929104e-03  1.7730759831560486e-02  -3.3814141093906758e-01  -2.1032848171976121e-01  3.8009108179669161e-02  -3.4056769621880750e-01  -2.8286158792240207e-01  3.8362149399255752e-02  -2.9201154261972123e-01  -3.6659083973471895e-01  4.2278749457284728e-02  6.0655614878424961e-02  2.2607353801408849e-02  1.8682711015180733e-02  2.6182154273223037e-02  3.2139124584210213e-02  -2.3946047809864685e-01  -6.9688519983357683e-04  1.9456097418082937e-03  2.8859728505922118e-03  2.5668294220415187e-02  2.7939673234657937e-02  3.6678298436958550e-03  1.1343355952909077e-02  4.1256379127510269e-02  5.0529341572032670e-02  5.0905870251093256e-02  -1.3045101117110760e-02  4.8236101191918720e-02  -1.4146346049864936e-01  -4.5515424226282547e-02  -7.1056628606433470e-02  4.3743740227985113e-02  7.7933332147475162e-03  3.6444854529205958e-03  -3.1258374324619170e-02  -1.9014290541990780e-01  -1.7605047560871251e-01  -1.5030241191995247e-01  3.8526835334454557e-01  1.0600983738679209e-01  -1.1149407505139045e-01  -2.0571533177421236e-01  -1.8126476199403735e-01  -9.7488850888532541e-02  -5.7258019194496988e-02  -1.2108360571229212e-01  -1.6496884876730836e-01  -1.5449070695994582e-01  3.5046442864681754e-02  6.5365276834492378e-02  2.6328806359658286e-02  3.3529301772229229e-02  1.8747779046768942e-02  2.6193935271078307e-02  -4.7082426595877552e-02  5.6030424943477937e-02  -1.4779077863898346e-01  2.0710110812076528e-02  2.6387839661658696e-02  1.6524279071131361e-02  1.0141286434945326e-02  5.3190632818251496e-02  2.7580433589550143e-02  -1.0540889984740180e-01  -8.1015004927326398e-02  -3.3119494273922734e-01  -3.5199997557856300e-01  -1.6564873907116129e-01  -1.3236535722291790e-02  4.0362416310724951e-02  3.9058849979049785e-02  2.9261171881783583e-02  3.8928128525853056e-01  8.0996816939343744e-03  5.7013898818000536e-02  4.8798532704173232e-02  -1.0625945047680163e-01  3.1657939803085393e-02  2.8297754057163516e-01  4.2691506713925201e-02  4.3615361048185156e-02  5.6137039465364330e-02  3.3572480912672911e-02  7.4700282713533947e-03  -1.3337210894154591e-01  5.4859295680713668e-02  -7.4027157663522608e-02  4.0322200356237757e-02  5.9046840233903136e-02  2.9260598016823840e-02  -1.5485032754268788e-01  2.9892938490633174e-02  5.2553815015033672e-02  7.3313193419348199e-01  -2.0828065590459396e-01  -1.4738697185539796e-02  6.7515239774812372e-02  -2.6886563341906861e-01  -5.4935675492693306e-02  1.5116377169682210e-02  1.2309014793975857e-02  3.6737276868408782e-02  7.9655054150958160e-01  2.5824390001802269e-02  1.1652165654492409e-02  3.0222947025395259e-02  3.1246928844411766e-02  3.6352330186011872e-01  1.2370085444452901e-02  3.2551789153881394e-01  -5.9276955326687378e-02  1.7465053815351170e-02  -3.5989272545657264e-01  -3.7562498926317694e-01  4.4026575707956608e-02  -3.6892228505920327e-01  -3.2273230116231420e-02  4.0394969819916221e-02  5.7840137307771752e-02  3.9574165870112955e-02  2.6050104097059296e-02  -7.3748567836280643e-03  3.4639776899392811e-03  -2.5304810458408718e-02  -6.2216121261898925e-02  6.3287843516334916e-02  -1.9946105972884867e-01  6.6959030209280207e-02  6.1428102481893336e-02  3.1801809845304459e-02  -7.5001317063332337e-02  -1.2467931942849157e-01  -1.1176437628149234e-01  -9.9452801656138845e-02  3.0843560838326677e-03  6.4100550440779183e-02  -2.7707296274472726e-01  -1.6206331428297044e-01  -1.8756588000725632e-01  6.7003651328064920e-02  5.7887688024542594e-01  6.1076411491322209e-02  -1.0509432943069306e-02  -1.1332033075373327e-01  2.5013286967538753e-02  -2.4302716523972487e-01  3.5683904533701398e-02  -3.4414500239120355e-01  1.5826645278983469e-02  -1.5621895920055720e-01  -1.8651568201864868e-01  -2.1821001914241622e-01  2.8186145280118414e-02  1.4246577111572742e-02  6.9909684938319283e-02  4.3263100200785505e-02  1.3726735696430788e-02  -9.7402730690216849e-02  1.1180714228710429e+00  5.1027487367698111e-02  -4.7820029269045272e-02  -3.0812431227927078e-01  3.1551922841986477e-02  2.2563311517901169e-02  5.8248996012460252e-02  5.9605173255043581e-02  4.5450630195679589e-02  4.0241033596963301e-02  1.1658886645938017e-02  6.5688434107540744e-02  2.4576321949456529e-02  -4.4458574525281402e-02  -4.5347675366888177e-02  4.5247138182091207e-01  4.5073067771669795e-01  6.2783986444995318e-02  -2.8428510062974760e-01  3.2735047607956778e-02  -2.5882585693641374e-03  2.0869864708519609e-02  -6.9778229465406226e-03  3.6761407916313243e-02  1.8339564695694161e-02  5.9811679283271690e-01  -3.8858838011931046e-02  6.0495024857537813e-02  6.5627655519308922e-02  2.3945509084715350e-01  -1.2697819714168604e-01  2.3999028108656194e-02  4.0881376791546034e-02  -2.6806170121762390e-01  -2.5954771446585312e-01  -3.5132188162899869e-01  3.5916224211915766e-02  3.9813295448576105e-02  -2.8061354939031363e-01  4.3512563399214904e-01  7.4659967882578304e-01  1.0945846912957753e-02  -1.5805802807534086e-01  4.0094858499289732e-02  2.2049794376500304e-02  6.0671958454079959e-02  3.5244716383977838e-02  2.6702018875582705e-09  -2.0346246066541995e-01  6.1460852217592857e-02  3.8376262786840106e-03  -2.0975299037643597e-01  -1.9328840249191423e-01  1.4780743062574514e-02  -1.5431623794270713e-01  3.8483809456385787e-01  3.6968215867663146e-01  3.3394781039376965e-02  4.1219977347320261e-02  4.3639485997975506e-02  4.7458630390983587e-02  5.2224514149238982e-02  4.9814501124148966e-02  3.6032741985413827e-02  -1.8710179868704455e-01  3.9083724813822905e-02  3.9065961241912389e-02  -4.0818654311470613e-03  -9.1190536266013856e-03  -7.2602920893808626e-02  -2.2695644177284477e-01  3.5704195504297390e-02  -1.3122803939248623e-01  3.9352425041444219e-02  -1.9267947426215204e-09  2.9379684034062339e-02  3.7760323753200785e-02  3.3769186366074670e-02  -1.6307721064457625e-01  5.1049054578412995e-02  -1.2334784461060634e-02  1.2285653519672388e-03  -7.7401249887922114e-03  -2.2442584984251189e-02  -2.0108808803103031e-02  2.0911446573365092e-02  -3.7708824925903751e-02  -3.2978142104140788e-02  -4.7153516263856464e-02  6.0492744858084764e-02  6.4934556733278956e-02  -4.9516786828745454e-02  3.9002419014837642e-01  -3.9574911784352212e-02  4.8593575751106434e-02  -4.7704379157288652e-02  6.8929617016888082e-03  7.6038924887148621e-03  3.1739227869087530e-03  -2.2071117646775204e-01  3.6146770900044117e-02  2.3126492142771109e-02  5.0885006654972685e-03  -2.4972678772014464e-01  2.9145800792796165e-02  5.0322981394743671e-02  4.5934247100616277e-02  -2.0826112855201595e-01  -2.1990201997535089e-01  6.3893756710209762e-02  -2.0217056413106585e-01  -2.3366927215890682e-01  -2.3360924290752211e-01  2.3499848760002266e-02  2.4063984872312247e-02  2.7973914389547383e-02  -4.2499727048156949e-01  1.8568862398036495e-02  -1.4987732659765549e-01  3.0082773785104398e-02  3.1529314256841379e-01  -1.0289967332009776e-02  2.6713875900348338e-03  -1.1923830109243047e-01  2.6702018875582705e-09  1.0737366466527072e+00  8.7401841022159721e-01  -2.9064682126250064e-02  -7.4674737380746606e-02  -1.3861882967757846e-01  6.3846852110065896e-02  6.7680456044493284e-02  -1.2472006789837894e-01  3.0478813377994959e-02  -1.7507166975398569e-01  5.1777928401875750e-01  4.6322656674746004e-01  4.6776260879014681e-01  2.8318077544943383e-02  1.2047713774670215e-02  5.8748985319877926e-02  6.2119054353234497e-02  6.3111132921288185e-02  4.2909009692068636e-02  5.2576212610640749e-01  3.6924633221697992e-02  -3.8169368213073762e-01  6.0580844119824298e-02  4.2564935644590587e-02  4.7320203848733644e-02  3.0117581202076488e-02  2.8791642123799806e-02  -2.0276983955921030e-01  5.4545222846122995e-02  -1.9884826700575825e-01  4.8