<?xml version="1.0"?>
<VTKFile type="UnstructuredGrid"  version="0.1"  >
<UnstructuredGrid>
<Piece  NumberOfPoints="2426" NumberOfCells="4534">
<Points>
<DataArray  type="Float64"  NumberOfComponents="3"  format="ascii">0 0.41 0  0 0 0  2.2 0 0  2.2 0.41 0  0.2404508497187474 0.2293892626146237 0  0.25 0.2 0  0.2404508497187474 0.1706107373853764 0  0.2154508497187474 0.1524471741852423 0  0.1845491502812526 0.1524471741852423 0  0.1595491502812526 0.1706107373853764 0  0.15 0.2 0  0.1595491502812526 0.2293892626146237 0  0.1845491502812527 0.2475528258147577 0  0.2154508497187474 0.2475528258147577 0  0.5404508497187474 0.2293892626146237 0  0.55 0.2 0  0.5404508497187474 0.1706107373853764 0  0.5154508497187473 0.1524471741852423 0  0.4845491502812526 0.1524471741852423 0  0.4595491502812526 0.1706107373853764 0  0.45 0.2 0  0.4595491502812526 0.2293892626146237 0  0.4845491502812526 0.2475528258147577 0  0.5154508497187473 0.2475528258147577 0  1.1 0 0  0 0.205 0  1.1 0.41 0  0.55 0 0  0.55 0.41 0  0.275 0 0  0.275 0.41 0  1.65 0.41 0  1.65 0 0  1.375 0 0  1.375 0.41 0  1.925 0 0  1.925 0.41 0  0.8250000000000001 0.41 0  0.8250000000000001 0 0  1.5125 0.205 0  1.7875 0.205 0  0.9625000000000001 0.205 0  1.2375 0.205 0  2.2 0.205 0  0.7560964076246335 0.2151713709677419 0  1.99375 0.2152743902439024 0  2.0625 0 0  0.6875 0 0  2.0625 0.41 0  2.2 0.3075 0  0.6875 0.41 0  1.7875 0.41 0  1.375 0.1486128048780488 0  1.5125 0 0  1.7875 0 0  1.5125 0.41 0  0.9625000000000001 0 0  0.9625000000000001 0.41 0  0.4125 0 0  0.1375 0 0  0.1375 0.41 0  0.4125 0.41 0  1.2375 0 0  1.1 0.1486128048780487 0  1.2375 0.41 0  1.65 0.1486128048780487 0  1.126715909090909 0.2793064024390244 0  1.676715909090909 0.2793064024390244 0  1.348284090909091 0.2793064024390244 0  0.34375 0.3032389320646208 0  1.894702181800738 0.1282910975492754 0  2.092797818199262 0.1282910975492754 0  1.85625 0.3075 0  0.8630851210521902 0.286932093388664 0  0.89375 0.1025 0  0.35 0.1090282786671641 0  0 0.3075 0  0 0.1025 0  0.6526217841291382 0.288229645480046 0  0.7562500000000001 0.09660248895515888 0  0.6568633732316684 0.1557582854763441 0  2.099172119769978 0.25625 0  1.002356446954348 0.1010393851523063 0  1.99375 0.08395950269330846 0  1.459960956013612 0.3075 0  1.569025960719943 0.2986889805672169 0  1.03125 0.3278689922742084 0  0.75625 0.3247156761655783 0  1.959375 0.3126371951219512 0  1.749222215368287 0.1025 0  1.275777784631713 0.1025 0  2.2 0.1025 0  1.225938124459196 0.3075 0  1.550777784631713 0.1025 0  1.44375 0.07430640243902442 0  1.16875 0.07430640243902437 0  0.3528655045338512 0.2063263890916129 0  0.5890337614812103 0.08775733857679162 0  0.8504912436891263 0.190072835691683 0  1.899250267340833 0.2229966846119207 0  0.1020898364287272 0.3140258291809757 0  1.766482954545455 0.2934032012195123 0  1.051658316544432 0.2265720188842194 0  0.2 0.3400647632937836 0  1.421109702350723 0.2261157654379721 0  0.4812500000000001 0.41 0  0.4324401666997539 0.3216425986889796 0  0.098916018031319 0.09171660955420841 0  0.9508742791313441 0.2921736960864468 0  2.13125 0 0  2.118919042110979 0.3422084711244843 0  1.30625 0.41 0  0.20625 0 0  1.597888256393107 0.2173787389261347 0  0.4812500000000001 0 0  0.4324082967851086 0.08384041677422771 0  1.829299675393195 0.07400700849299596 0  0.568219932524165 0.3212274660843853 0  1.71875 0.41 0  0.268005226542646 0.08512186835670006 0  1.16875 0.41 0  2.038220665644273 0.332420740103091 0  0.6678017527842831 0.07701763866051195 0  0.89375 0.41 0  0.5111435174287687 0.07335351331957608 0  0.176193934632343 0.0734896648625108 0  0.07390688010811153 0.1697064032433452 0  0.05452951551825875 0.25625 0  0.61875 0.41 0  1.452769549894695 0.1548122580621249 0  1.369219062229598 0.07430640243902442 0  1.30625 0 0  1.720943423819132 0.1714577452753128 0  1.157188124459196 0.205 0  1.094219062229598 0.07430640243902437 0  1.304056576180868 0.1714577452753128 0  1.67579304192913 0.07430640243902437 0  0.2672907219039591 0.3037570723459566 0  1.209670467133757 0.1362100266964769 0  1.58125 0 0  1.03125 0 0  0.06875000000000001 0.41 0  0 0.35875 0  1.58125 0.41 0  1.631724228912893 0.3381867502687533 0  0.8240147050827157 0.1225233169495944 0  1.825608881788174 0.14499488549201 0  1.85625 0 0  1.44375 0 0  1.44375 0.41 0  1.85625 0.41 0  2.13125 0.41 0  0.7562500000000001 0.41 0  0.7562500000000001 0 0  0.89375 0 0  0.34375 0 0  0.34375 0.41 0  0.20625 0.41 0  0.06875000000000001 0 0  1.16875 0 0  1.03125 0.41 0  0.61875 0 0  1.71875 0 0  1.99375 0 0  1.99375 0.41 0  0.3972301426712326 0.2593842555611471 0  1.340625 0.3489494290853124 0  1.134375 0.3489494290853123 0  1.700180620188976 0.3438659752031281 0  0.5003922072260507 0.341765274319271 0  0.6212513815748759 0.2209216137134851 0  0.6885607720119526 0.215393731583638 0  1.033412357328477 0.1612902025713047 0  2.135782184673599 0.07126652247502523 0  1.668441847249787 0.2129203728327609 0  1.295782514339747 0.2378437748815763 0  1.409375 0.3520314716057996 0  2.129248544730567 0.1906135162504124 0  2.060771381434487 0.1989445750470348 0  2.013252586573865 0.1496169464686054 0  1.942766402200229 0.1734448904596831 0  1.895522487186454 0.06076163953489683 0  2.069553871656643 0.06605731020975725 0  0.9281250000000001 0.3539050257418612 0  1.274680914880868 0.3520219391081363 0  0.3030138498135347 0.2488370856812789 0  0.8223773249563684 0.341761430177996 0  0.9018164060227267 0.2326477848736739 0  0.8143027982392851 0.2440265179987191 0  0.7225087161029304 0.2699907246386231 0  1.614713220494657 0.09473434380863296 0  0.378125 0.3566194660323104 0  0.309375 0.3566194660323104 0  1.72990325744076 0.2380068107952482 0  0.6915936999299305 0.3429472631234433 0  0.6268087624932918 0.3466455500035671 0  1.356580098625191 0.2120393231351682 0  0.3060160055995138 0.1590148921620778 0  0.3954648733249218 0.156380553890791 0  2.034370752044885 0.2668681600792073 0  1.51768709249349 0.3426260931494756 0  1.561883724969884 0.1650446847858835 0  1.197344062229598 0.2523725417393646 0  0.9281250000000001 0.05124999999999999 0  1.804085235518364 0.3468178408964637 0  1.817887819205233 0.2589243285818559 0  0.9107805776841645 0.1653834539923287 0  1.905897727272727 0.3485060975609756 0  0 0.05125 0  0.844212276491354 0.0614201194265309 0  0.378125 0.05244637078450034 0  1.008571329007178 0.2705955969954818 0  0.7724048032149464 0.1559079561351474 0  0.7203054377831548 0.04941826955193545 0  1.192836486056382 0.3562350748565544 0  0.5967108020713719 0.1479294686523888 0  1.28257088594801 0.2944411014911587 0  0.7041890234548132 0.1222025174424443 0  1.474860187679412 0.2504218616229368 0  1.406767003493824 0.2829282258560709 0  0.3201325899091991 0.05890121548989159 0  0.5979220912872258 0.2727591995766724 0  1.845656689180403 0.1998310418452388 0  2.144958525570388 0.2909790873294231 0  2.2 0.15375 0  1.57794966442982 0.3540357145964566 0  0.9483181579620558 0.1214693369582054 0  0.0496154796471391 0.333125 0  1.508991196088596 0.1421783375065625 0  0.09776612425612034 0.2204896805326566 0  1.50436820029908 0.06143401634903343 0  1.223857000523521 0.0823554862453532 0  0.2531953886959507 0.3582003209055908 0  1.153316824384777 0.1289850171317837 0  2.148922302309752 0.1258841779285271 0  1.621993280276081 0.2841214267927899 0  1.550118654119087 0.2461998729100966 0  1.327182649291491 0.1216967252533594 0  1.753125 0.04556020050186112 0  1.271875 0.04556020050186116 0  0.9824282234771738 0.05051969257615314 0  1.039510847866381 0.05683351822678641 0  1.94956388244759 0.1180512551534177 0  1.949997712993411 0.04965831614304109 0  1.771961817615021 0.1530278789497521 0  1.909246823951428 0.2812757146784527 0  1.101974016627944 0.2038045618205013 0  0.7906250000000001 0.0444674049654372 0  1.948575539857022 0.2445328248721197 0  1.697271520964565 0.1233917627620729 0  1.065625 0.3689344961371042 0  1.085849084308977 0.3170853572226867 0  0.9840604787624379 0.3582077516409966 0  1.577403511714593 0.05463601888079143 0  0.05622663515370135 0.05493816910862376 0  0.8762396958822678 0.3392249777398821 0  1.751571320346033 0.3651102912045228 0  1.055327852410105 0.111864799513911 0  0.1583785085108421 0.2994699345738728 0  0.1455283439499995 0.3542795598723423 0  2.2 0.35875 0  0.225705107073232 0.05084786997482401 0  0.1455852234589313 0.1166494778469164 0  1.466879772203159 0.3611261772912453 0  1.990280163552011 0.3564754268533217 0  1.17471064520912 0.2990917256188288 0  0.7221925551074015 0.1739659241003985 0  0 0.25625 0  2.2 0.25625 0  2.2 0.05125 0  0 0.15375 0  1.853978576207987 0.35875 0  0.21965520498276 0.1015543880164422 0  1.515638456102889 0.2882700110184686 0  0.09048297387599738 0.3637717362208066 0  2.150453692751374 0.2387066338105111 0  1.323782677156475 0.04897634338873398 0  1.409375 0.03715320121951221 0  1.406484531114799 0.1087852750766809 0  1.134375 0.03715320121951218 0  1.627401732573545 0.04552157221025036 0  0.446875 0.3713289093361426 0  2.045405893604797 0.1105340662939892 0  1.255408269734577 0.1577307500159216 0  2.028125 0.03707597992059326 0  0.04420832937638274 0.128125 0  0.5817551710628505 0.3702615006034757 0  0.1197849154434487 0.2663398672460083 0  1.248258025468107 0.2565907092181813 0  0.1300647302703173 0.0508462728378621 0  0.7738123537510222 0.2761231499240648 0  1.203125 0.0366132337404304 0  0.5444207041612499 0.111205399508622 0  0.8016457771828226 0.1964238426015905 0  2.072662025974815 0.2975086504196739 0  0.4019040438866802 0.2103993403217561 0  0.4677372330974851 0.04827477407630658 0  0.8677218578847617 0.1432970430140788 0  1.058011122005847 0.2758866204059919 0  0.4429405887974043 0.2746184809910084 0  0.5843750000000001 0.03726989681835222 0  0.6318596133730142 0.1128692182767254 0  0.4862628454464408 0.2957029785303028 0  0.7805186758662764 0.3673578380827891 0  1.887722846421017 0.1760882698830035 0  0.3498893058880703 0.256189258793856 0  1.472640588990488 0.1118278026240017 0  1.865937103925594 0.2604137786483804 0
[...]
<PointData  Scalars="f_43"> 
<DataArray  type="Float64"  Name="f_43"  format="ascii">4.4156145092399662e-01  4.7227288856852978e-01  1.0411266108227483e-09  1.0126966599654657e-09  -3.4293984098850994e-01  -3.0651728606847778e-01  -3.2911025607602012e-01  -4.9650791819455548e-01  -9.1385895300658637e-01  8.8175037020765956e-01  2.0155565854644850e+00  4.1908249493807048e-01  -1.1396251176971952e+00  -4.9008061911472817e-01  -2.6028795003969629e-01  -2.3630437044800714e-01  -2.7213480204091217e-01  -4.4155608938431484e-01  -1.1020772375688775e-01  -8.8752584985253472e-02  -2.7379016948110119e-01  -1.2256793010892028e-01  -5.6052724092529788e-02  -5.0058340983790384e-01  1.9766958614183411e-04  7.8377046246162851e-01  1.2031833606932111e-02  -1.8392033331564259e-01  -1.7856321824440599e-01  1.9392933569799931e-02  3.9825362984693448e-02  2.2873795605684945e-02  3.2118499788773708e-02  3.0966372553995907e-02  2.8357054742852571e-02  1.6317632315012119e-02  1.9460641423231170e-02  -7.3836433276911112e-02  -6.5414963667617662e-02  3.1251237301481556e-02  2.3015613706647599e-02  3.3245187323350529e-02  2.2755053238839942e-02  2.2400924192641317e-09  -4.4722412385002651e-02  1.2685017173048690e-02  8.8203388673339950e-03  -1.3257327068531211e-01  6.4643025899741727e-03  1.4215604117130428e-09  -1.3053028149431548e-01  2.3997897210731863e-02  3.1585356684833171e-02  2.7628571111346610e-02  2.3524190087395098e-02  3.9104382561752325e-02  -2.0067593648931160e-02  -2.7370463817153454e-02  -1.7465949297193042e-01  3.8905571986125254e-01  3.6629717518322769e-01  -1.5730064562612783e-01  3.1804749983323569e-02  1.7887495001299446e-02  1.2140828654421091e-02  3.1675960868606690e-02  2.3226674145348743e-02  2.0168926670888449e-02  2.5852002626958127e-02  -2.3618295350071716e-01  1.6285039725052693e-02  7.1960029639174198e-03  2.5121503284225723e-02  -2.1554591023450833e-02  -9.8785881610317077e-03  -2.7723863082509659e-01  5.3816927937972403e-01  5.7218827858575760e-01  -1.6887079272896358e-01  -7.9810529034092664e-02  -1.8829351317400267e-01  1.9989753525282566e-03  -2.0979932560488130e-03  1.3108838794649772e-02  4.1270291769521975e-02  3.3755009742217471e-02  3.2866564176016783e-03  -8.8756856655471866e-02  1.6765829765994025e-02  2.6738202344757669e-02  3.7134614276746837e-02  -1.2758050318901536e-09  1.3412059991567617e-02  2.8757010989649587e-02  2.4371216566211020e-02  1.7061073784952297e-02  -3.3532570700632791e-01  -2.0215371705305735e-01  2.5493186711285282e-02  2.0884701457774775e-02  4.8160798169085683e-01  2.1698921440181835e-02  3.6847193015868043e-02  1.6994706774588483e-01  3.7002984149298146e-02  -1.7968110516010877e-01  -1.9529329401110621e-01  5.1080480020103458e-01  -1.6608768103173247e-03  4.5217054810636282e-03  2.2746506734060228e-03  1.6009120178945957e-02  2.1684185891981353e-01  2.9206581320883253e-02  -1.8927581378246375e-01  -1.9456507538440171e-01  2.0750473412757084e-02  -2.0390585953898183e-01  2.1034926175638725e-02  -1.2991940929805276e-01  1.4871216306379404e-02  7.8231253356248510e-03  -1.4528790869829827e-01  -5.1195078778017801e-02  -2.0389257735358143e-01  2.3348041300498706e-01  9.1629551478227755e-01  7.3874380461390987e-01  -1.5950560834580887e-01  2.4599986546971573e-02  3.2056299306663830e-02  3.5537751205570046e-02  2.7989660201960195e-02  2.6297471954253217e-02  -1.0779154244166154e-03  3.5179861943953832e-02  3.1565601488051938e-02  -1.6838790051721786e-01  3.2228338659082340e-02  3.2024334074165731e-02  -1.1021282308212737e-02  4.2939125817737211e-01  4.5373716461579311e-01  3.1029490198898883e-02  2.3442983475761972e-02  -1.6194606354076161e-02  2.0872518582298955e-02  1.9555227999463447e-02  2.6311237059926034e-02  3.9034765254048906e-02  2.4317631166121022e-02  2.7253667034129372e-03  -1.0019295449406580e-01  -9.8535802809770548e-02  -3.7456482823647899e-02  -1.1856539435909520e-01  -8.8472371901523017e-02  2.1615430638986885e-01  4.5795999641752411e-01  1.7167650862714313e-02  -3.4998845557499018e-03  -1.6121296148093253e-01  2.8094154976944220e-02  1.3003928221026612e-02  1.2585324120864331e-02  -3.1749329915395358e-01  1.9747080194583547e-02  1.7580420099679837e-02  1.8625046749461045e-02  -1.9327802532063704e-01  -2.2228612419835833e-01  -1.3346660242318903e-01  1.6273464975291120e-02  4.2802740579104557e-03  2.2086397455854060e-02  2.0229071680755197e-02  3.5197266421658331e-02  2.4196306309005127e-03  6.0979318731580719e-03  1.1817463140172711e-02  1.4211269965555004e-02  1.7163170886075076e-02  8.3303676701894612e-03  -3.7697852286863766e-02  1.0725813252436696e-02  -3.3483708425286468e-01  -6.6389157361140053e-02  2.2180449988645160e-02  -1.2842520909003686e-02  -9.5204860474896055e-02  3.3092985455051405e-02  -1.4817162313536700e-01  -6.5498395660186434e-02  2.0373706861319202e-02  -1.2635509336536596e-01  -1.6067492285264953e-01  3.0047311804491977e-02  -3.3096610294768997e-01  -3.5280620146879121e-01  7.9039517965071859e-03  4.0508661603584281e-02  2.9666421033326951e-02  1.6372274797082302e-02  -2.3908135590259526e-02  2.4848867294859307e-02  2.4732272893923393e-02  3.2426426917397264e-02  2.1842466939478292e-02  4.8519794523757498e-01  -4.9878183688192405e-02  -1.7035811935363052e-01  2.3865040714750579e-02  -3.0886607439518269e-02  -1.1269570992202073e-01  1.4290959734129133e-02  -2.3660629127172486e-01  1.4263175635637474e-02  -1.2027781259036580e-01  4.0043066649768533e-02  3.5411187589090586e-02  -1.1341485820460394e-01  -2.2966279275916218e-01  2.1277489647054594e-02  8.6801425116321941e-04  -2.0104576224989716e-09  3.1794358129585705e-02  6.6736871591790425e-03  4.7715556745571897e-01  2.6220885893931199e-02  1.1358569739288455e+00  2.5377267473062490e-02  3.1247369141467262e-02  4.9775191318556254e-02  2.2302194019409274e-02  3.8618702793772413e-03  2.5547310492782190e-02  3.5822947443271302e-02  3.5655844314234957e-02  2.5630363118284271e-02  3.6361329021828162e-02  -1.4965669540511470e-02  -9.6132532761053664e-03  1.4320589506109161e-02  1.5103998935127335e-02  2.6178276952856197e-02  2.1670421557514630e-02  2.7348057317685213e-02  -7.8456856685375428e-02  1.8625679495809358e-02  3.0205547187793304e-02  7.0049638954730493e-03  1.7106364806137780e-02  -1.8195794857181549e-02  3.1946078486034583e-02  4.7837255246153976e-01  -4.9334763638066312e-02  2.1635058974383010e-02  3.4206331847609901e-03  2.4923479836207746e-01  3.4067437143902018e-01  -5.6757320960780717e-09  1.1859835555980380e-01  3.5685989589064604e-01  4.1599756746043777e-02  1.2838812613227944e-02  1.8634438249909659e-02  -9.2952443281508729e-02  6.8943700461253021e-01  1.4215604117130428e-09  1.1691618030603671e-09  7.1575203479103089e-01  2.5073708857943876e-02  -1.2039560394585604e-01  3.9377305352923969e-02  4.2074448862269154e-01  6.6487946866929484e-04  3.6029420499526871e-02  2.7543787702054390e-02  2.8364781256004144e-02  7.1406094715949055e-03  3.3248900310628174e-02  -1.7304829380525813e-01  1.0042962911823692e-02  3.6014960876986059e-02  1.1018004244315193e-02  6.5899940297376425e-01  -1.7173764439805783e-01  6.8506296066838868e-01  1.5028199193578678e-02  3.9459790752548318e-01  -5.5260134422256586e-02  2.5469238942251518e-02  -2.5923824249488658e-01  -1.4041943031024037e-03  4.6194388915707235e-03  -3.1306703180238366e-01  -1.8699976676457011e-01  1.8033702233565752e-02  2.5369152203838008e-02  -1.9549172715284102e-01  -1.7452228654978519e-01  -1.9181836691188547e-01  -2.0495279709357500e-01  -8.7221099422971987e-02  1.6101513692262419e-02  -3.3866582182558969e-01  2.4494520192045555e-02  2.3955795814914402e-02  1.5285314431797915e-02  3.1707520177806585e-02  -1.1166476652899245e-01  2.8121308364200428e-02  -1.1500957218326589e-01  -1.5707990444208941e-01  -1.0704364597754795e-01  3.1267858435245335e-02  -2.0632438235919914e-01  -1.7942902583215503e-01  1.9623710073672595e-02  -2.7128195001612837e-01  -2.1976957088555002e-01  2.3205174923174910e-02  6.0509252647526195e-03  3.1552277850456077e-02  -4.0413581186744027e-02  9.2619618501644223e-03  -3.2703278250263490e-01  -3.3810777828708094e-01  3.1880776139785356e-02  -3.4190493581775178e-01  9.2376404999361195e-01  2.4519116874466642e-02  8.5889394072690628e-01  1.3491625154473944e-02  6.1290859627988548e-03  -2.2053910412160340e-02  1.0849627616267862e-03  4.2816078633486389e-03  5.0219922121518589e-03  -2.7626816066828553e-03  2.8912918191311907e-02  2.6436302964028914e-02  -1.4009115436953098e-01  -2.7101294058486464e-01  2.3924994228485805e-02  -6.2384182302676436e-02  1.1707807984993920e-02  3.4655304309586445e-02  2.9592031646204532e-02  2.6151335279856445e-02  2.8862678349764286e-02  -1.8196349485322930e-01  -1.7971242687816935e-01  3.5678675322165655e-02  3.0420109901181162e-02  2.8868466938668968e-02  2.7445287519874198e-03  1.5564632900314818e-03  4.3906780135454093e-01  -2.8328751263800561e-01  -1.8861952340337666e-02  2.2989366169807214e-02  2.2790989080082112e-02  1.8240415495363184e-02  -5.8415285626837218e-02  2.9959198557677570e-02  1.7457473090389832e-02  -3.3790660988485204e-02  3.2038207729657819e-02  2.4770940379545459e-02  1.9473677241358029e-02  3.1288424444488189e-01  2.0958706755458974e-02  -1.8925005795523908e-01  -1.8715219618400891e-01  -5.3262293550924251e-03  3.0125377465043901e-01  9.4947321410511834e-03  -5.1406567422917007e-03  3.0950646111221090e-02  -2.3004955112320677e-01  1.1353250023711211e-02  6.5500068192007885e-03  2.4886506945741980e-02  3.0072065711289789e-02  -2.4868077166575472e-01  -1.4224082947375424e-01  1.9461186029312200e-02  9.5078356210607281e-03  2.2804592798379396e-02  2.3964723998941281e-02  2.6539682087225458e-02  2.8527200583441086e-03  4.3397596018193818e-01  1.6620220026129253e-02  -1.3240622328105453e-01  -1.9009588697775473e-01  -1.0883903402113038e-01  1.3326949128840006e-02  -3.2043947328706668e-01  2.2389114780918550e-02  -5.0459468912925277e-02  1.9274853189335715e-02  1.7852578432906711e-02  1.5399349291671607e-02  -1.1748338826893157e-02  2.5413292444540787e-02  2.8943405730586843e-02  3.1728768623774078e-02  3.2378651372058385e-02  4.6959671514744722e-01  4.4191582340578495e-01  8.2790793944744930e-03  2.7200210937077363e-02  -6.3620067909561609e-02  -5.5937017470431456e-02  1.2425837693899690e-02  9.6688500516182909e-03  5.7401361407639906e-01  -2.2288248305723060e-01  7.1064044861927156e-01  -1.5856078976046642e-01  2.4233193401909041e-02  -7.5224508806555360e-02  -2.1221339493696201e-02  -2.4052944253816896e-01  2.5200979860112570e-02  7.7994364150677531e-01  -1.6790995547893564e-01  1.0871223481826337e-02  3.9341447789544959e-02  2.7148413600512539e-01  3.9182386471331355e-02  6.1450276628769696e-01  2.8252366897410983e-02  -1.0947971540853182e-01  2.2655354125546614e-02  2.4577009576045215e-02  2.8616479013665513e-02  3.6606752852511908e-02  3.2246561355641593e-02  3.2468474754998519e-02  7.1174507191621005e-03  3.0600418504728614e-02  3.5102151203298924e-02  -1.7995242949065457e-01  1.3435348691768711e-02  -1.9287077274374620e-01  -1.4827172840942496e-01  2.5573556391852104e-02  3.4813818739341452e-02  5.4649613112884554e-01  2.8461942575085789e-02  1.9435876743224313e-02  2.5099003365754963e-01  4.5315486389713089e-01  -1.4980822265283845e-02  5.1554312644453149e-01  2.4716073538666013e-02  -4.2795477477052077e-02  3.0245637849542047e-02  -1.8874553032195626e-01  3.8128956108040055e-02  2.1472560028932604e-02  -1.6181798997666752e-01  -4.9862062875432898e-02  3.8357108755282974e-03  8.4496601418207404e-03  3.7611492879291233e-02  2.1276603555960998e-03  -2.3800970883200285e-02  8.2193814316676829e-04  7.0907344543407488e-04  2.2415838353883732e-02  2.8795996227087860e-02  -3.2627549584677129e-01  2.7424962086272927e-02  1.4613932370692662e-02  2.7229744132130436e-03  5.3505003040527598e-03  1.5328480263295878e-02  3.3353503942167161e-03  2.0941782373155114e-02  1.8494037683208116e-02  2.3420349217572967e-02  1.3119705827625816e-02  -1.8582981529723025e-01  -1.7988325104099354e-01  1.1499336188544505e-01  -6.8243841900597388e-02  -9.6841009302249231e-02  -1.8216913872625426e-01  -1.5831622365243439e-01  1.3803976942121394e+00  -1.2952063696732095e-02  1.7324704251590084e-01  1.5794633604976925e-02  1.4812224208124601e-02  1.4930219786652916e-02  2.1761387520545312e-02  2.7689126305330609e-02  2.0544449059914340e-02  2.8544217000725274e-02  5.7311638139995649e-03  1.3268169584775445e-02  -3.0996800901773230e-01  -1.8541203522965383e-01  1.8365489151517610e-02  -3.2174177983124536e-01  -2.4908831220835800e-01  3.2318608536862796e-02  -2.7276257305342039e-01  -3.3359017422833487e-01  3.5599570025823306e-02  2.1101336696409154e-02  1.2267744649165196e-02  1.0046883695892775e-02  1.7046727064641685e-02  1.2971561765262518e-02  -2.0891860382840416e-01  1.4517550400956390e-02  2.4478157037459713e-02  2.9293617482733056e-02  1.6559153310634501e-02  3.3874109134233318e-02  2.3466477033243821e-03  6.6532663408370224e-03  2.7989450646361810e-02  4.0608550138384589e-02  2.2394235051239154e-02  5.9217498419005896e-03  2.5733220362631790e-02  -1.1532036342681690e-01  -2.7372677008677827e-02  -3.9335325736823322e-02  3.4777646093128271e-02  8.1224695941863271e-03  1.4636449961572360e-03  -6.3171991473675512e-03  -1.7194544855666558e-01  -1.5309637528932857e-01  -1.2926919245578772e-01  4.0636941226634521e-01  1.2747617071942846e-01  -8.6357191248459461e-02  -1.7569762573585890e-01  -1.7143166802638887e-01  -8.1711366594175924e-02  -3.5396397525268110e-02  -9.9031208466042117e-02  -1.4128393442447890e-01  -1.4580372301709557e-01  2.5467553358101531e-02  3.2753323604216643e-02  1.4765345683024714e-02  3.5178972668242783e-02  1.0998758545031930e-02  1.6075815093775214e-02  -1.5196436387178583e-02  2.0253994741175060e-02  -1.3578485522995451e-01  1.2096745943244482e-02  3.0171657857001082e-02  3.2894045955634998e-02  2.9507192404138960e-02  2.5663404245712583e-02  2.8188552989784052e-02  -7.5739312340693268e-02  -4.7025902591733518e-02  -2.9919665232403114e-01  -3.2148878367693062e-01  -1.3950636194711602e-01  7.3366299838019009e-03  2.6644622588419584e-02  2.0824734838501759e-02  3.6556931963481552e-02  4.0940412782019703e-01  1.7441390900673422e-02  3.8310898876993293e-02  4.2072212446893714e-02  -8.5491360382440554e-02  1.6937335922207926e-02  3.0429084549474289e-01  4.0312734779534821e-02  3.7259877284817867e-02  1.9578691871723120e-02  2.3287353108880107e-02  1.3183193276166480e-02  -1.2268622538552937e-01  2.1365395029688612e-02  -5.1556632245289627e-02  2.1027562823663547e-02  1.9918114438805163e-02  2.5882789307893443e-02  -1.4632874595446257e-01  2.0309485799453905e-02  4.0508504773126633e-02  7.5388669745330406e-01  -1.7555335852775902e-01  3.5217369766771486e-03  3.2659217700790881e-02  -2.4787998357284027e-01  -4.6680809834182803e-02  8.8443216554531245e-03  7.2440778541365174e-03  3.3200615048549702e-02  8.1750475195887229e-01  1.0531880981817747e-02  2.5279573767103988e-02  1.6620172608298001e-02  1.4855353986488044e-02  3.8463129818181552e-01  3.6187177521846223e-03  3.4584990771429308e-01  -3.0218773815807863e-02  7.7665548298606691e-03  -3.3911119574827281e-01  -3.4696897785541403e-01  2.4519782678794927e-02  -3.3806901924636867e-01  -1.5000181322259838e-02  2.5694642871951869e-02  1.8587900487075263e-02  2.4093809696077721e-02  1.4444467709613171e-02  1.4355401570450215e-02  6.9463348758440552e-04  7.2363745665486191e-03  -2.0608089785817248e-02  3.0401310004330502e-02  -1.7895503205675820e-01  3.1696325131246032e-02  3.3273193346199478e-02  2.1161343660962621e-02  -6.4435641674430250e-02  -1.0401302969986856e-01  -8.3368985883713526e-02  -5.9338249809033988e-02  2.6601899015293605e-02  3.3604926706093829e-02  -2.4603258927210692e-01  -1.5384157577026844e-01  -1.7897984603721118e-01  2.9008527928606882e-02  5.9889266821644949e-01  2.7900222604257795e-02  1.1370879164616014e-02  -9.1439202888285692e-02  3.5185592885665702e-02  -2.1954737161615656e-01  2.3662923307375936e-02  -3.2887305313418463e-01  1.5642033018194536e-02  -1.3362224593949931e-01  -1.6308499260732073e-01  -1.9299038135478794e-01  1.8410892757864439e-02  3.2548034653762749e-02  3.0909391230506445e-02  2.3873789364803135e-02  1.5287803602606512e-02  -8.1035381851544630e-02  1.1392182978828780e+00  2.1512898806699012e-02  -1.5096947150694503e-02  -3.0253027509046920e-01  1.7052036878077333e-02  1.5046246654457480e-02  2.8687534985241306e-02  2.3933926032481925e-02  2.3749608190659015e-02  2.4812536720936210e-02  3.0842449416851442e-03  2.6326189885214169e-02  1.4534321737267250e-02  -2.2794023662825163e-02  -3.3494537979287677e-02  4.7267376113321924e-01  4.7093240449786328e-01  2.8671531920167567e-02  -2.5933695902724124e-01  1.6449876017820129e-02  1.2121400281077277e-02  3.5684482116684409e-02  1.0457001880399563e-02  1.1878365840239127e-02  3.4481812054694867e-02  6.1917905454129929e-01  -2.7936906248651909e-02  3.6638211669744611e-02  8.6806524815763370e-02  2.6062434825576325e-01  -1.0583338494380805e-01  1.3396098546995829e-02  2.1689308973091206e-02  -2.3370263421930756e-01  -2.1519369848208836e-01  -3.3169993287242777e-01  3.6097868014861596e-02  2.4793182888251965e-02  -2.5023501350064581e-01  4.5534383616134450e-01  7.6738796809971210e-01  6.3389905283289432e-03  -1.3190434579410040e-01  2.0993668318996073e-02  1.5226516082012146e-02  3.2340202201529729e-02  2.3681397406559956e-02  2.2400924192641317e-09  -1.9209925064379771e-01  2.2022583078294033e-02  2.5200636652840500e-03  -1.9846168216901938e-01  -1.8825581685231427e-01  4.8195946113289527e-03  -1.2585773054684496e-01  4.0595884102055230e-01  3.9081183352152771e-01  2.2645118028870460e-02  3.4055336863311289e-02  3.8533835760004576e-02  4.0402068122433736e-02  3.7572871011029456e-02  2.5822859305808195e-02  2.4824336947139390e-02  -1.6484413379643315e-01  3.1698189922472364e-02  3.8460104099836225e-02  1.4488209367271715e-02  9.5894797923024595e-03  -6.2634687973358374e-02  -2.0671360610107520e-01  1.9733860439458156e-02  -1.1053822231323719e-01  6.0239289337540261e-02  -1.2758050318901536e-09  1.4011830974853638e-02  1.7342963369696353e-02  1.2557586644711793e-02  -1.3636768118971335e-01  2.7400177656492799e-02  -4.3948441155232380e-05  1.9098769450189911e-02  1.9753229985949538e-02  4.5320809553791776e-03  4.5184437739165684e-04  1.1139576628008985e-02  -4.7613537017681786e-03  -4.7274710501889238e-03  -1.0586835813210550e-02  2.4607513639985264e-02  2.2882988518855535e-02  -2.1460912880032525e-02  4.1029589387857746e-01  -9.0303875611436584e-03  2.3014420861089194e-02  -3.9782778911923826e-02  1.2068723929444520e-03  1.2847294941543321e-03  4.9394343717644581e-04  -1.9102965143857836e-01  2.3186559599848697e-02  1.3486529695424831e-02  2.1403909350631762e-02  -2.1295954839565856e-01  3.6333095721889655e-02  2.6860987858144319e-02  2.4297141512145494e-02  -1.7686899047270180e-01  -1.8925745746845726e-01  3.1756145451890365e-02  -2.0019678685144512e-01  -2.3244229914261447e-01  -2.2629048330002963e-01  2.7231447583698241e-02  1.8987625686489384e-02  3.1621607414604985e-02  -4.0610313042486273e-01  1.2319403522986303e-02  -1.2153349142817396e-01  3.7990419566164474e-02  3.3641313627813879e-01  -1.1785382538379147e-02  5.1879015889927963e-03  -9.7583658361601322e-02  2.2400924192641317e-09  1.0942331690848410e+00  8.9479901383033544e-01  -7.7410307806386591e-03  -4.1678082391718052e-02  -1.2028474109503265e-01  3.2597866289914235e-02  2.7196940483327235e-02  -1.1049413077091207e-01  1.5351098742033331e-02  -1.6765821079461549e-01  5.3885045579448987e-01  4.8433246179603195e-01  4.8886927376922507e-01  1.4431867156137469e-02  1.6241673623312565e-03  3.6248915447600796e-02  3.3807334907323031e-02  3.2189431653460832e-02  2.1181886790232869e-02  5.4517088386922974e-01  2.5018234789487618e-02  -3.6138149378243084e-01  3.1286517769874726e-02  2.2655665584359386e-02  2.3391531882019083e-02  1.6089238082838842e-02  1.5779133142764204e-02  -1.7904689829149051e-01  1.9710518317993649e-02  -1.8825975560660360e-01  2.6596520028913846e-02  1.420586