<?xml version="1.0"?>
<VTKFile type="UnstructuredGrid"  version="0.1"  >
<UnstructuredGrid>
<Piece  NumberOfPoints="2426" NumberOfCells="4534">
<Points>
<DataArray  type="Float64"  NumberOfComponents="3"  format="ascii">0 0.41 0  0 0 0  2.2 0 0  2.2 0.41 0  0.2404508497187474 0.2293892626146237 0  0.25 0.2 0  0.2404508497187474 0.1706107373853764 0  0.2154508497187474 0.1524471741852423 0  0.1845491502812526 0.1524471741852423 0  0.1595491502812526 0.1706107373853764 0  0.15 0.2 0  0.1595491502812526 0.2293892626146237 0  0.1845491502812527 0.2475528258147577 0  0.2154508497187474 0.2475528258147577 0  0.5404508497187474 0.2293892626146237 0  0.55 0.2 0  0.5404508497187474 0.1706107373853764 0  0.5154508497187473 0.1524471741852423 0  0.4845491502812526 0.1524471741852423 0  0.4595491502812526 0.1706107373853764 0  0.45 0.2 0  0.4595491502812526 0.2293892626146237 0  0.4845491502812526 0.2475528258147577 0  0.5154508497187473 0.2475528258147577 0  1.1 0 0  0 0.205 0  1.1 0.41 0  0.55 0 0  0.55 0.41 0  0.275 0 0  0.275 0.41 0  1.65 0.41 0  1.65 0 0  1.375 0 0  1.375 0.41 0  1.925 0 0  1.925 0.41 0  0.8250000000000001 0.41 0  0.8250000000000001 0 0  1.5125 0.205 0  1.7875 0.205 0  0.9625000000000001 0.205 0  1.2375 0.205 0  2.2 0.205 0  0.7560964076246335 0.2151713709677419 0  1.99375 0.2152743902439024 0  2.0625 0 0  0.6875 0 0  2.0625 0.41 0  2.2 0.3075 0  0.6875 0.41 0  1.7875 0.41 0  1.375 0.1486128048780488 0  1.5125 0 0  1.7875 0 0  1.5125 0.41 0  0.9625000000000001 0 0  0.9625000000000001 0.41 0  0.4125 0 0  0.1375 0 0  0.1375 0.41 0  0.4125 0.41 0  1.2375 0 0  1.1 0.1486128048780487 0  1.2375 0.41 0  1.65 0.1486128048780487 0  1.126715909090909 0.2793064024390244 0  1.676715909090909 0.2793064024390244 0  1.348284090909091 0.2793064024390244 0  0.34375 0.3032389320646208 0  1.894702181800738 0.1282910975492754 0  2.092797818199262 0.1282910975492754 0  1.85625 0.3075 0  0.8630851210521902 0.286932093388664 0  0.89375 0.1025 0  0.35 0.1090282786671641 0  0 0.3075 0  0 0.1025 0  0.6526217841291382 0.288229645480046 0  0.7562500000000001 0.09660248895515888 0  0.6568633732316684 0.1557582854763441 0  2.099172119769978 0.25625 0  1.002356446954348 0.1010393851523063 0  1.99375 0.08395950269330846 0  1.459960956013612 0.3075 0  1.569025960719943 0.2986889805672169 0  1.03125 0.3278689922742084 0  0.75625 0.3247156761655783 0  1.959375 0.3126371951219512 0  1.749222215368287 0.1025 0  1.275777784631713 0.1025 0  2.2 0.1025 0  1.225938124459196 0.3075 0  1.550777784631713 0.1025 0  1.44375 0.07430640243902442 0  1.16875 0.07430640243902437 0  0.3528655045338512 0.2063263890916129 0  0.5890337614812103 0.08775733857679162 0  0.8504912436891263 0.190072835691683 0  1.899250267340833 0.2229966846119207 0  0.1020898364287272 0.3140258291809757 0  1.766482954545455 0.2934032012195123 0  1.051658316544432 0.2265720188842194 0  0.2 0.3400647632937836 0  1.421109702350723 0.2261157654379721 0  0.4812500000000001 0.41 0  0.4324401666997539 0.3216425986889796 0  0.098916018031319 0.09171660955420841 0  0.9508742791313441 0.2921736960864468 0  2.13125 0 0  2.118919042110979 0.3422084711244843 0  1.30625 0.41 0  0.20625 0 0  1.597888256393107 0.2173787389261347 0  0.4812500000000001 0 0  0.4324082967851086 0.08384041677422771 0  1.829299675393195 0.07400700849299596 0  0.568219932524165 0.3212274660843853 0  1.71875 0.41 0  0.268005226542646 0.08512186835670006 0  1.16875 0.41 0  2.038220665644273 0.332420740103091 0  0.6678017527842831 0.07701763866051195 0  0.89375 0.41 0  0.5111435174287687 0.07335351331957608 0  0.176193934632343 0.0734896648625108 0  0.07390688010811153 0.1697064032433452 0  0.05452951551825875 0.25625 0  0.61875 0.41 0  1.452769549894695 0.1548122580621249 0  1.369219062229598 0.07430640243902442 0  1.30625 0 0  1.720943423819132 0.1714577452753128 0  1.157188124459196 0.205 0  1.094219062229598 0.07430640243902437 0  1.304056576180868 0.1714577452753128 0  1.67579304192913 0.07430640243902437 0  0.2672907219039591 0.3037570723459566 0  1.209670467133757 0.1362100266964769 0  1.58125 0 0  1.03125 0 0  0.06875000000000001 0.41 0  0 0.35875 0  1.58125 0.41 0  1.631724228912893 0.3381867502687533 0  0.8240147050827157 0.1225233169495944 0  1.825608881788174 0.14499488549201 0  1.85625 0 0  1.44375 0 0  1.44375 0.41 0  1.85625 0.41 0  2.13125 0.41 0  0.7562500000000001 0.41 0  0.7562500000000001 0 0  0.89375 0 0  0.34375 0 0  0.34375 0.41 0  0.20625 0.41 0  0.06875000000000001 0 0  1.16875 0 0  1.03125 0.41 0  0.61875 0 0  1.71875 0 0  1.99375 0 0  1.99375 0.41 0  0.3972301426712326 0.2593842555611471 0  1.340625 0.3489494290853124 0  1.134375 0.3489494290853123 0  1.700180620188976 0.3438659752031281 0  0.5003922072260507 0.341765274319271 0  0.6212513815748759 0.2209216137134851 0  0.6885607720119526 0.215393731583638 0  1.033412357328477 0.1612902025713047 0  2.135782184673599 0.07126652247502523 0  1.668441847249787 0.2129203728327609 0  1.295782514339747 0.2378437748815763 0  1.409375 0.3520314716057996 0  2.129248544730567 0.1906135162504124 0  2.060771381434487 0.1989445750470348 0  2.013252586573865 0.1496169464686054 0  1.942766402200229 0.1734448904596831 0  1.895522487186454 0.06076163953489683 0  2.069553871656643 0.06605731020975725 0  0.9281250000000001 0.3539050257418612 0  1.274680914880868 0.3520219391081363 0  0.3030138498135347 0.2488370856812789 0  0.8223773249563684 0.341761430177996 0  0.9018164060227267 0.2326477848736739 0  0.8143027982392851 0.2440265179987191 0  0.7225087161029304 0.2699907246386231 0  1.614713220494657 0.09473434380863296 0  0.378125 0.3566194660323104 0  0.309375 0.3566194660323104 0  1.72990325744076 0.2380068107952482 0  0.6915936999299305 0.3429472631234433 0  0.6268087624932918 0.3466455500035671 0  1.356580098625191 0.2120393231351682 0  0.3060160055995138 0.1590148921620778 0  0.3954648733249218 0.156380553890791 0  2.034370752044885 0.2668681600792073 0  1.51768709249349 0.3426260931494756 0  1.561883724969884 0.1650446847858835 0  1.197344062229598 0.2523725417393646 0  0.9281250000000001 0.05124999999999999 0  1.804085235518364 0.3468178408964637 0  1.817887819205233 0.2589243285818559 0  0.9107805776841645 0.1653834539923287 0  1.905897727272727 0.3485060975609756 0  0 0.05125 0  0.844212276491354 0.0614201194265309 0  0.378125 0.05244637078450034 0  1.008571329007178 0.2705955969954818 0  0.7724048032149464 0.1559079561351474 0  0.7203054377831548 0.04941826955193545 0  1.192836486056382 0.3562350748565544 0  0.5967108020713719 0.1479294686523888 0  1.28257088594801 0.2944411014911587 0  0.7041890234548132 0.1222025174424443 0  1.474860187679412 0.2504218616229368 0  1.406767003493824 0.2829282258560709 0  0.3201325899091991 0.05890121548989159 0  0.5979220912872258 0.2727591995766724 0  1.845656689180403 0.1998310418452388 0  2.144958525570388 0.2909790873294231 0  2.2 0.15375 0  1.57794966442982 0.3540357145964566 0  0.9483181579620558 0.1214693369582054 0  0.0496154796471391 0.333125 0  1.508991196088596 0.1421783375065625 0  0.09776612425612034 0.2204896805326566 0  1.50436820029908 0.06143401634903343 0  1.223857000523521 0.0823554862453532 0  0.2531953886959507 0.3582003209055908 0  1.153316824384777 0.1289850171317837 0  2.148922302309752 0.1258841779285271 0  1.621993280276081 0.2841214267927899 0  1.550118654119087 0.2461998729100966 0  1.327182649291491 0.1216967252533594 0  1.753125 0.04556020050186112 0  1.271875 0.04556020050186116 0  0.9824282234771738 0.05051969257615314 0  1.039510847866381 0.05683351822678641 0  1.94956388244759 0.1180512551534177 0  1.949997712993411 0.04965831614304109 0  1.771961817615021 0.1530278789497521 0  1.909246823951428 0.2812757146784527 0  1.101974016627944 0.2038045618205013 0  0.7906250000000001 0.0444674049654372 0  1.948575539857022 0.2445328248721197 0  1.697271520964565 0.1233917627620729 0  1.065625 0.3689344961371042 0  1.085849084308977 0.3170853572226867 0  0.9840604787624379 0.3582077516409966 0  1.577403511714593 0.05463601888079143 0  0.05622663515370135 0.05493816910862376 0  0.8762396958822678 0.3392249777398821 0  1.751571320346033 0.3651102912045228 0  1.055327852410105 0.111864799513911 0  0.1583785085108421 0.2994699345738728 0  0.1455283439499995 0.3542795598723423 0  2.2 0.35875 0  0.225705107073232 0.05084786997482401 0  0.1455852234589313 0.1166494778469164 0  1.466879772203159 0.3611261772912453 0  1.990280163552011 0.3564754268533217 0  1.17471064520912 0.2990917256188288 0  0.7221925551074015 0.1739659241003985 0  0 0.25625 0  2.2 0.25625 0  2.2 0.05125 0  0 0.15375 0  1.853978576207987 0.35875 0  0.21965520498276 0.1015543880164422 0  1.515638456102889 0.2882700110184686 0  0.09048297387599738 0.3637717362208066 0  2.150453692751374 0.2387066338105111 0  1.323782677156475 0.04897634338873398 0  1.409375 0.03715320121951221 0  1.406484531114799 0.1087852750766809 0  1.134375 0.03715320121951218 0  1.627401732573545 0.04552157221025036 0  0.446875 0.3713289093361426 0  2.045405893604797 0.1105340662939892 0  1.255408269734577 0.1577307500159216 0  2.028125 0.03707597992059326 0  0.04420832937638274 0.128125 0  0.5817551710628505 0.3702615006034757 0  0.1197849154434487 0.2663398672460083 0  1.248258025468107 0.2565907092181813 0  0.1300647302703173 0.0508462728378621 0  0.7738123537510222 0.2761231499240648 0  1.203125 0.0366132337404304 0  0.5444207041612499 0.111205399508622 0  0.8016457771828226 0.1964238426015905 0  2.072662025974815 0.2975086504196739 0  0.4019040438866802 0.2103993403217561 0  0.4677372330974851 0.04827477407630658 0  0.8677218578847617 0.1432970430140788 0  1.058011122005847 0.2758866204059919 0  0.4429405887974043 0.2746184809910084 0  0.5843750000000001 0.03726989681835222 0  0.6318596133730142 0.1128692182767254 0  0.4862628454464408 0.2957029785303028 0  0.7805186758662764 0.3673578380827891 0  1.887722846421017 0.1760882698830035 0  0.3498893058880703 0.256189258793856 0  1.472640588990488 0.1118278026240017 0  1.865937103925594 0.2604137786483804 0
[...]
<PointData  Scalars="f_43"> 
<DataArray  type="Float64"  Name="f_43"  format="ascii">4.4127391096257018e-01  4.7209478762814400e-01  9.4732408099773323e-10  1.1658401497843340e-09  -3.4319669784163426e-01  -3.0671810096447188e-01  -3.2927953420242861e-01  -4.9671890104230781e-01  -9.1391096939641459e-01  8.8175241010366168e-01  2.0153371075693198e+00  4.1861141028012805e-01  -1.1401182370750729e+00  -4.9030614496166358e-01  -2.6075665166148532e-01  -2.3670619194798073e-01  -2.7233440110391760e-01  -4.4267401205167700e-01  -1.1388620326255113e-01  -9.1486083702168638e-02  -2.7370721365175937e-01  -1.2000885623773298e-01  -5.2395297109453370e-02  -5.0024150890805674e-01  -2.8602126811379225e-03  7.8353663412062979e-01  1.4081832691851846e-02  -1.8517191844632117e-01  -1.7784525344864535e-01  1.9277291606509324e-02  3.9455575007367377e-02  2.2791873823468600e-02  3.2878004360964261e-02  3.2186195916911998e-02  2.3868083261963571e-02  1.5151572718925864e-02  2.2309215010534737e-02  -7.3790991747994084e-02  -6.5956873418103981e-02  3.1036731987168678e-02  2.3919495753569567e-02  3.1846274454489176e-02  2.3865033841990145e-02  3.5833734937491265e-09  -4.2748739253519893e-02  1.1703225012928196e-02  8.4813513240053363e-03  -1.3529035478934320e-01  5.1654113871603497e-03  2.0469524652926908e-09  -1.2848191532027856e-01  2.5739762396107074e-02  3.1988181728296379e-02  2.6078176898396449e-02  2.3210331844718018e-02  3.7638399113184229e-02  -1.5136011498281509e-02  -3.2098542002655210e-02  -1.7489405345483572e-01  3.8886403069217212e-01  3.6601828110237722e-01  -1.5761439411440906e-01  2.9304040932385738e-02  1.4433449394296296e-02  1.5048579586250228e-02  3.2004738786917460e-02  2.6734570836547629e-02  2.0498240579404099e-02  2.2380223370481692e-02  -2.3733971442766330e-01  1.5091514515626873e-02  5.7714749706061306e-03  2.7374077102167008e-02  -2.5366770134619351e-02  -5.9392499544037632e-03  -2.7637959852792693e-01  5.3788531800561823e-01  5.7200680550992722e-01  -1.6623463927809964e-01  -8.2319593176893968e-02  -1.9291651917708047e-01  -1.5128341409356625e-03  1.5218642679608201e-03  1.3092287055502205e-02  3.8182507752533859e-02  3.2756909916289358e-02  3.1907661227246142e-04  -8.6704388244117442e-02  1.9600143953957139e-02  2.7611152700347502e-02  3.6330684568836473e-02  -1.9274784324459295e-09  1.7313669214531657e-02  2.7413203208825364e-02  2.4418291741754732e-02  1.1225923113549023e-02  -3.3585043822332517e-01  -2.0390156420739092e-01  2.5817816738679132e-02  2.0852317226211194e-02  4.8132122508551756e-01  2.3532613308047175e-02  3.7577191748453143e-02  1.6965602200077814e-01  3.5349379803327231e-02  -1.7959484929701830e-01  -1.9503284011537803e-01  5.1062666073307639e-01  -6.5759951345106763e-03  4.1275935993909767e-03  -7.3133766497789673e-04  1.4297861809458481e-02  2.1666710499384312e-01  2.7935777998516282e-02  -1.8991675793889254e-01  -1.9541640999594273e-01  1.9114079276224993e-02  -2.0303831938157718e-01  2.1720614729463364e-02  -1.2997173183356409e-01  1.9631505950251215e-02  7.3887307712596408e-03  -1.4823648031439957e-01  -5.4242555344086958e-02  -2.0506577358250011e-01  2.3329802905639499e-01  9.1609188780949202e-01  7.3847338234024673e-01  -1.5805045708540530e-01  2.5269751694936508e-02  3.3628508205366579e-02  3.6093762935853056e-02  2.8611341513379102e-02  2.6670083217370057e-02  -4.1129561114982647e-03  3.4322595458361645e-02  3.2988514204330362e-02  -1.6883273795615736e-01  2.9751315884258573e-02  3.1055474491248861e-02  -8.9586488238193717e-03  4.2910694747184547e-01  4.5344908772353187e-01  3.0588476226233955e-02  2.3086247198966028e-02  -1.4658953544481856e-02  1.9292258773883547e-02  1.7910334676117884e-02  2.6085000679938859e-02  3.5361676743151105e-02  2.6878092574544599e-02  6.8979356152058303e-04  -9.8314036236140517e-02  -1.0114340035012064e-01  -3.4372956643981267e-02  -1.1864337179965299e-01  -8.8894072179432779e-02  2.1585261464920732e-01  4.5777750107312926e-01  1.2191907409135698e-02  -6.0144847616270371e-03  -1.6324057568629755e-01  2.9318174532350496e-02  1.2718563962509467e-02  1.4087556819963454e-02  -3.1914621038488034e-01  1.5687824499703493e-02  2.1954791188881696e-02  1.8990784724440372e-02  -1.9282060945896554e-01  -2.2188058320652726e-01  -1.3149540413857450e-01  1.5680021902233936e-02  3.7481919724949566e-03  2.2151705889998201e-02  1.8350249580456193e-02  3.0172542609023092e-02  -2.0693229038357915e-03  1.1892878750656140e-03  1.1471187990034208e-02  1.4070954210090509e-02  1.5304201296848577e-02  7.7471870507519226e-03  -4.2473407577186692e-02  1.1500207732163818e-02  -3.3564700745425852e-01  -6.6256580093312673e-02  1.6440491816066081e-02  -1.4884821034916233e-02  -9.1492902848536700e-02  3.2727837772368089e-02  -1.4860903560049948e-01  -6.5957483612086629e-02  2.2100103451557749e-02  -1.2402950645757010e-01  -1.5907677243938254e-01  2.8019559455738880e-02  -3.3057511106262644e-01  -3.5178067957427112e-01  6.1429982513971290e-03  3.9312451786459562e-02  2.9272654978339419e-02  1.9746508548686075e-02  -1.8982452118024178e-02  2.6823154352232620e-02  2.6710591695473681e-02  3.6900997540436360e-02  2.4852412096246470e-02  4.8502063235372639e-01  -4.9469513516702604e-02  -1.7043327886813875e-01  2.1972994408450870e-02  -3.2563676286136968e-02  -1.1572994828089941e-01  1.9710029678058589e-02  -2.3804335160740306e-01  1.4061018094636748e-02  -1.2441754090558689e-01  3.7961338737343184e-02  3.1636886170172081e-02  -1.1338282427628489e-01  -2.2884024656523216e-01  2.0153773768842809e-02  -1.8842314908250491e-03  -3.2062446824454003e-09  3.1408759351378004e-02  1.1082231896420892e-02  4.7686795467039927e-01  2.5856407971632203e-02  1.1355999301697164e+00  2.3766329546298010e-02  2.7610662867004566e-02  4.9429726506000082e-02  1.8316729758120254e-02  3.2840445510205845e-03  2.4777447187241140e-02  3.3626883416724908e-02  3.5793872349615709e-02  2.6487064856774486e-02  3.5610854054143083e-02  -9.6933163331344632e-03  -7.7253476364995870e-03  1.4091960700588328e-02  1.4377994499580949e-02  2.5626197859819490e-02  2.4100179710501640e-02  2.6859303488475251e-02  -8.0545518059451274e-02  1.9987041145910132e-02  3.1066041482753111e-02  6.4579662092664226e-03  1.8243129341633996e-02  -2.3271413994663696e-02  3.0616026227216833e-02  4.7819445507965092e-01  -5.1960634913114902e-02  2.2816449168958412e-02  3.0153457653867852e-03  2.4893745575787157e-01  3.4039433841840866e-01  -6.2566750137799158e-09  1.1843286464356700e-01  3.5670150376064419e-01  3.8567435254318619e-02  1.4816914014596410e-02  2.3417979973589909e-02  -9.7324129500172496e-02  6.8917078926042930e-01  2.0469524652926908e-09  1.2428925834627294e-09  7.1555168231972965e-01  2.7571380325107631e-02  -1.2056001045514006e-01  3.7664234498110960e-02  4.2046061299176457e-01  -1.0242416895062396e-03  3.7355892850906534e-02  2.8369894359161187e-02  2.9166435565662122e-02  2.1482576511322247e-03  3.3384077281847654e-02  -1.7316079521999411e-01  9.4161257518297174e-03  3.4766297420806794e-02  1.0840407716350338e-02  6.5881296732011940e-01  -1.7071577538804944e-01  6.8476377063139371e-01  1.5704872944369345e-02  3.9441042787938529e-01  -5.4279700769694912e-02  2.1008411718508931e-02  -2.6042337092866097e-01  -1.8333024966504039e-03  2.0986012613233222e-03  -3.1364395391299477e-01  -1.8766862913616716e-01  2.2407702049577819e-02  2.5976749716643602e-02  -1.9362031707367858e-01  -1.7610694246625286e-01  -1.9486525127335774e-01  -2.0328548928080153e-01  -8.5581404325337437e-02  1.4662318307053080e-02  -3.4089237437685044e-01  2.4190336992439564e-02  2.5977997683718574e-02  1.7460362759038707e-02  3.1767461233451560e-02  -1.1195930421965836e-01  2.3003039299211894e-02  -1.1290201932918575e-01  -1.5927421667672848e-01  -1.0479625496779205e-01  3.1253519012827448e-02  -2.0808873690335000e-01  -1.8148645737685501e-01  2.0891976703720894e-02  -2.7091559737324261e-01  -2.2039871135425521e-01  2.5208958749084413e-02  5.5480337018345488e-03  3.1248394184787927e-02  -4.1784376892562258e-02  9.3216229041940754e-03  -3.2736961368407935e-01  -3.3826928168831455e-01  3.1621978043694370e-02  -3.4059815617654382e-01  9.2359752714434529e-01  2.6607698627199614e-02  8.5865643081175580e-01  1.3818331219661343e-02  8.3822931569223571e-04  -2.6625721099440010e-02  -8.2856910549290155e-04  2.2154074917429992e-03  3.0742704355575644e-03  -7.2932425903583327e-03  2.5302054897111050e-02  2.6168413388295068e-02  -1.3818432178617895e-01  -2.7076099852428309e-01  2.3447642189738705e-02  -6.3861349221710814e-02  1.2923792486883481e-02  3.1848842894086661e-02  2.8482722246570030e-02  2.5129247458358827e-02  2.8574691345248374e-02  -1.8139533160259902e-01  -1.8003213440042193e-01  3.4877236940142380e-02  3.1681143251822780e-02  3.0428345932041134e-02  2.4535443188018814e-03  -7.5810344395952397e-05  4.3878090229222649e-01  -2.8274271614941676e-01  -1.8960901578021157e-02  2.2205593562091466e-02  2.2231551090014134e-02  1.6154659838920272e-02  -5.9631414609576681e-02  2.8439926158354275e-02  2.0338524964060321e-02  -3.0809841447468487e-02  3.4760792090595544e-02  2.6953855800971201e-02  2.0602161979742985e-02  3.1269584527243283e-01  2.0905750595318871e-02  -1.9017050096055776e-01  -1.8829611554296005e-01  -6.6618982391199464e-03  3.0096927512486005e-01  7.8953004308895264e-03  -8.4824076706218107e-03  3.0298010671143710e-02  -2.2920404186611837e-01  1.4936552616674606e-02  2.6250055382393369e-03  2.4072946364752712e-02  2.8295371218808464e-02  -2.4917187179252218e-01  -1.3799973852166911e-01  1.7497765285824394e-02  4.4730947809635217e-03  2.6884788855681189e-02  2.1109936802557600e-02  3.0580509294390840e-02  1.0554330264511045e-03  4.3378834092576685e-01  1.3831495724183761e-02  -1.3515560192258061e-01  -1.8875762900900930e-01  -1.0618960504434161e-01  1.3128741534898366e-02  -3.2064396004902085e-01  2.5232469964475923e-02  -4.9239248429118823e-02  1.7382336391224742e-02  1.6228259997732371e-02  1.4290165210830676e-02  -6.2132715393399037e-03  2.4253226613143719e-02  3.0536293788571200e-02  3.2857513564313753e-02  3.2966883302856333e-02  4.6941797454885337e-01  4.4162798133792752e-01  8.0453574805731017e-03  2.8016601044141869e-02  -6.4586314937225359e-02  -5.6025531583898856e-02  1.4231236193246892e-02  4.3511844543078545e-03  5.7372904947302761e-01  -2.2479899334341313e-01  7.1045881242928755e-01  -1.5924853931333996e-01  2.4330140830680046e-02  -7.8390192692730926e-02  -2.6657201801163880e-02  -2.4112619894382031e-01  2.5567484005918503e-02  7.7973814586305956e-01  -1.6804762498072512e-01  1.0599353912422584e-02  3.6559795104892323e-02  2.7119959570956370e-01  3.7010979447577107e-02  6.1422485968011808e-01  2.6525144244713330e-02  -1.1269237826519331e-01  2.3934418012083396e-02  2.4337305135069476e-02  2.9025924700428325e-02  3.5804852381160282e-02  3.3130792251278747e-02  3.4019295852094497e-02  4.2586611446790200e-03  3.1129711827303529e-02  3.4674272216320523e-02  -1.8158318463948273e-01  1.3585233514019576e-02  -1.9019092940689031e-01  -1.5065398587559345e-01  2.1029516466849085e-02  3.2968347488240797e-02  5.4631765618994155e-01  2.7846195475644438e-02  1.9344640349574220e-02  2.5080572374837951e-01  4.5297274228228140e-01  -1.9054564443159054e-02  5.1536535417185958e-01  2.4473586357706269e-02  -4.3614685829379211e-02  2.9893949242780063e-02  -1.8956993540624553e-01  3.7083909834084661e-02  2.0301333311641835e-02  -1.6595984691221630e-01  -5.3039786009149693e-02  -8.0145399917329178e-04  5.3756222674377742e-03  3.8380385253069069e-02  -1.2980804757784521e-03  -2.1776012711024997e-02  -3.3040205603827740e-03  -1.4436556175221496e-03  2.4086867324122626e-02  2.6978837263736073e-02  -3.2662205824090002e-01  2.8428300769479064e-02  1.6582857375205515e-02  2.5823224004549493e-03  4.3535896174850984e-03  1.5009251195297729e-02  9.3034139220553758e-04  2.3434055196688532e-02  1.6918478587367992e-02  2.2422983253815421e-02  1.2797184615357117e-02  -1.8548763762419496e-01  -1.7977600753234171e-01  1.1484179947995062e-01  -6.7403684973931843e-02  -9.9644994841502091e-02  -1.8179244260245553e-01  -1.5862597935356490e-01  1.3801881227655990e+00  -9.3968480721699568e-03  1.7294263623653297e-01  2.0790991134349117e-02  1.8647264733048546e-02  1.3037951601239245e-02  1.8222889791682448e-02  2.2824274525336308e-02  2.5066419481088727e-02  2.9108343580782077e-02  3.6802522537046638e-03  1.7598037007506853e-02  -3.0996728607638607e-01  -1.8581219864149576e-01  1.6549600075547576e-02  -3.2184961773623499e-01  -2.5078918058246769e-01  2.9681420383936247e-02  -2.7229664758871608e-01  -3.3531092424867903e-01  3.0724967194162355e-02  2.1342466554687689e-02  1.1714754123890520e-02  7.9658986101409212e-03  1.9077221423822070e-02  1.3668611893252492e-02  -2.1019448059903342e-01  1.7580531211509091e-02  2.6672212609190438e-02  3.1853965511691319e-02  1.1229895715536608e-02  3.5111575507707084e-02  2.1007259940032234e-03  6.2249466770966169e-03  2.8630769217782643e-02  3.8073644835906945e-02  2.3618163626711111e-02  5.5992567269943175e-03  2.6382527179256748e-02  -1.1813611451493328e-01  -2.2952366906258553e-02  -4.3613680077601129e-02  3.0328052231384746e-02  3.4986665610534742e-03  1.8641767718730450e-04  -6.9060608552645609e-03  -1.7209339397329712e-01  -1.5321632643417207e-01  -1.2966238716420392e-01  4.0608897040462472e-01  1.2714718576788311e-01  -8.5177414272145618e-02  -1.7729848602096046e-01  -1.7036266416365325e-01  -8.3541322678920213e-02  -3.5803557906826378e-02  -9.9477641279311121e-02  -1.4190141931662395e-01  -1.4400647756609197e-01  2.1387161935130634e-02  3.2642083376115849e-02  1.4155090164887984e-02  3.4406585005259969e-02  1.0778571453933910e-02  1.8480661114863239e-02  -1.1192483143781651e-02  2.0884661863884400e-02  -1.3309522730845660e-01  1.2096813799394630e-02  2.5314556324442277e-02  3.1385821669917581e-02  2.7557005336162586e-02  2.6101439841340109e-02  2.5549581127711451e-02  -7.5149116227957224e-02  -4.8572777384455555e-02  -3.0101090098611177e-01  -3.2297929259355956e-01  -1.4509525984270596e-01  8.1487611698802531e-03  2.3789831835360070e-02  1.8599766919116124e-02  3.4873569615245008e-02  4.0922488789847133e-01  2.3026951615179241e-02  3.7350983411833481e-02  4.0107909767962212e-02  -8.4232297621961730e-02  1.5425380568325032e-02  3.0395194041147572e-01  3.6230208071631416e-02  3.2944571415755020e-02  2.0766378398242372e-02  2.5929931798165617e-02  1.1116231416202191e-02  -1.2052430101739020e-01  2.2344839600755808e-02  -5.1990326954783388e-02  1.9592059901651745e-02  2.0240219249523607e-02  2.4461954064021969e-02  -1.4423841185742484e-01  2.3208307349437903e-02  3.8523556901785910e-02  7.5363540971863252e-01  -1.7785165688317744e-01  -2.1264827550734125e-03  3.1985558447082847e-02  -2.4793038157604622e-01  -4.5257458666831452e-02  8.4975816566075415e-03  6.1962256238417357e-03  3.2670745297641433e-02  8.1722657573479918e-01  1.3696222206089150e-02  2.5123834143172239e-02  1.5944053002225494e-02  1.4379225814743936e-02  3.8435151275186208e-01  7.8906558896134761e-04  3.4565943568068813e-01  -3.5165643412948505e-02  6.9771759873428624e-03  -3.3746969024499124e-01  -3.4648982637934905e-01  2.6459732087721163e-02  -3.3926949711508353e-01  -1.0138536975640043e-02  2.7944916975599299e-02  1.9081292259317449e-02  2.5352287945780705e-02  1.4075976644891778e-02  1.9083046381544844e-02  -6.1687629790482942e-04  5.5648364845845956e-03  -1.9677897988148965e-02  2.9679201194920408e-02  -1.7921406213728064e-01  3.0511834089382638e-02  3.3830809789212900e-02  2.4096260874279945e-02  -6.5234717141695431e-02  -9.9391904969946099e-02  -8.1101659947158705e-02  -5.6162627594654908e-02  2.8518228280958298e-02  3.3060967861712046e-02  -2.4646616268928928e-01  -1.5227968825262109e-01  -1.7782196250601801e-01  2.8677077700690713e-02  5.9872317922518437e-01  2.7688666222620294e-02  1.0991529295469494e-02  -9.1517022245814456e-02  3.6354964561630551e-02  -2.1930531354750185e-01  2.6366902032563748e-02  -3.2770396940700280e-01  1.1707444195589164e-02  -1.3371875562439023e-01  -1.6325670215275201e-01  -1.9324801362102279e-01  2.1534370863509143e-02  3.1590209765363073e-02  2.9518652097456848e-02  2.5179158128332473e-02  2.0585707063149782e-02  -8.3527398693027402e-02  1.1389096159028682e+00  2.3366075058683641e-02  -1.8874085019065692e-02  -3.0135821656115624e-01  1.7332409597580957e-02  1.7595088011809777e-02  2.8867747865835843e-02  2.3058175045789494e-02  2.5819878294405109e-02  2.6903596708832578e-02  -2.7456941303542200e-03  2.4910485552762655e-02  1.6751384993706275e-02  -1.7835332180397161e-02  -2.9991081637863830e-02  4.7249600388759827e-01  4.7075465037438352e-01  2.8073264308809479e-02  -2.6008973529321389e-01  1.4643150562304053e-02  8.3028504646811083e-03  3.5663769648412141e-02  7.6525851364071806e-03  1.1234221586573355e-02  3.7712794068979302e-02  6.1889191401082455e-01  -2.9370373390677659e-02  3.6023782374660245e-02  8.6516682443209550e-02  2.6034138123494355e-01  -1.0615394349533420e-01  1.3499471514306098e-02  1.7816772501784473e-02  -2.3505906546328961e-01  -2.1846326039423722e-01  -3.3127850842997592e-01  3.4411215297721599e-02  2.7149214270273787e-02  -2.5059002110018136e-01  4.5516203103974001e-01  7.6713213417588777e-01  5.6217634825940534e-03  -1.3531665015771902e-01  1.9551137313701120e-02  1.7531279967493044e-02  3.2399024591562117e-02  2.5962774967722875e-02  3.5833734937491265e-09  -1.9086334835734478e-01  2.1776520186497596e-02  2.3154129500162785e-03  -1.9783374021608122e-01  -1.8662247829194958e-01  1.9785958862782475e-03  -1.2894247875397843e-01  4.0567595982708871e-01  3.9052566301930214e-01  2.4615880155483365e-02  3.2189296908449197e-02  3.7051245826266600e-02  3.8036634054708120e-02  3.6364594368120867e-02  2.5798709369974707e-02  2.7411259977277603e-02  -1.6476650744414359e-01  2.7950358149294811e-02  3.5828643681253845e-02  1.3668603769615666e-02  8.7896824580181564e-03  -6.3740553738286423e-02  -2.0634276934648368e-01  1.8539793083505920e-02  -1.1053198505508667e-01  6.0101691044450123e-02  -1.9274784324459295e-09  1.5652098585956987e-02  1.6427368118752651e-02  1.2734677807370441e-02  -1.3991187648208639e-01  2.8896440342236339e-02  -3.6794631894961423e-03  2.2282069582497347e-02  2.4453438417222671e-02  8.2587858349022613e-03  5.0180428914938808e-03  1.2192759902704943e-02  -2.6607045944794456e-03  -5.0495164538518029e-03  -6.2999130676083554e-03  2.4729992006573671e-02  2.2408330675124197e-02  -2.6534469614953520e-02  4.1010660490953782e-01  -8.0855940357866876e-03  2.4472426804762727e-02  -3.9412827414623201e-02  -1.8367063796529892e-03  -1.4751835485516470e-03  -1.1023059499450107e-03  -1.9219035676568824e-01  2.3989659647934355e-02  1.5726133100488780e-02  2.5096008876277536e-02  -2.1506884189684292e-01  3.6765132604723000e-02  2.7934668791398987e-02  2.4441651347244287e-02  -1.7870328618591658e-01  -1.9073106228670644e-01  3.1067557962238104e-02  -1.9828124378119469e-01  -2.3177250663242713e-01  -2.2556223351227855e-01  2.3701587031898008e-02  1.3860185643183755e-02  3.0413378776762943e-02  -4.0629543694665965e-01  1.7236520245747903e-02  -1.2437065894255864e-01  3.7965539038560127e-02  3.3613309782522455e-01  -1.1266493644674434e-02  8.0567696468395884e-05  -1.0055517402815653e-01  3.5833734937491265e-09  1.0940092185759855e+00  8.9454192791936593e-01  -1.2108727572391960e-02  -4.5857343528926835e-02  -1.1701975899766741e-01  3.2047919121313641e-02  2.6860007890983414e-02  -1.0807645859347154e-01  1.4271368253856434e-02  -1.6582750378426347e-01  5.3856544051994659e-01  4.8404523493275958e-01  4.8858242001066338e-01  1.4379275521534405e-02  -3.5590319318873870e-03  3.4820071853782511e-02  3.2018055514391075e-02  3.0388844109686414e-02  1.6786723893304066e-02  5.4506271045979815e-01  1.9959206321527669e-02  -3.6161216549950148e-01  3.1272974131892541e-02  2.2394285734999290e-02  2.5019889567349064e-02  1.4775687950275763e-02  1.4750218900152937e-02  -1.7968834371498124e-01  2.0536925363207656e-02  -1.8750527014957294e-01  2.669049309953