<?xml version="1.0"?>
<VTKFile type="UnstructuredGrid"  version="0.1"  >
<UnstructuredGrid>
<Piece  NumberOfPoints="2426" NumberOfCells="4534">
<Points>
<DataArray  type="Float64"  NumberOfComponents="3"  format="ascii">0 0.41 0  0 0 0  2.2 0 0  2.2 0.41 0  0.2404508497187474 0.2293892626146237 0  0.25 0.2 0  0.2404508497187474 0.1706107373853764 0  0.2154508497187474 0.1524471741852423 0  0.1845491502812526 0.1524471741852423 0  0.1595491502812526 0.1706107373853764 0  0.15 0.2 0  0.1595491502812526 0.2293892626146237 0  0.1845491502812527 0.2475528258147577 0  0.2154508497187474 0.2475528258147577 0  0.5404508497187474 0.2293892626146237 0  0.55 0.2 0  0.5404508497187474 0.1706107373853764 0  0.5154508497187473 0.1524471741852423 0  0.4845491502812526 0.1524471741852423 0  0.4595491502812526 0.1706107373853764 0  0.45 0.2 0  0.4595491502812526 0.2293892626146237 0  0.4845491502812526 0.2475528258147577 0  0.5154508497187473 0.2475528258147577 0  1.1 0 0  0 0.205 0  1.1 0.41 0  0.55 0 0  0.55 0.41 0  0.275 0 0  0.275 0.41 0  1.65 0.41 0  1.65 0 0  1.375 0 0  1.375 0.41 0  1.925 0 0  1.925 0.41 0  0.8250000000000001 0.41 0  0.8250000000000001 0 0  1.5125 0.205 0  1.7875 0.205 0  0.9625000000000001 0.205 0  1.2375 0.205 0  2.2 0.205 0  0.7560964076246335 0.2151713709677419 0  1.99375 0.2152743902439024 0  2.0625 0 0  0.6875 0 0  2.0625 0.41 0  2.2 0.3075 0  0.6875 0.41 0  1.7875 0.41 0  1.375 0.1486128048780488 0  1.5125 0 0  1.7875 0 0  1.5125 0.41 0  0.9625000000000001 0 0  0.9625000000000001 0.41 0  0.4125 0 0  0.1375 0 0  0.1375 0.41 0  0.4125 0.41 0  1.2375 0 0  1.1 0.1486128048780487 0  1.2375 0.41 0  1.65 0.1486128048780487 0  1.126715909090909 0.2793064024390244 0  1.676715909090909 0.2793064024390244 0  1.348284090909091 0.2793064024390244 0  0.34375 0.3032389320646208 0  1.894702181800738 0.1282910975492754 0  2.092797818199262 0.1282910975492754 0  1.85625 0.3075 0  0.8630851210521902 0.286932093388664 0  0.89375 0.1025 0  0.35 0.1090282786671641 0  0 0.3075 0  0 0.1025 0  0.6526217841291382 0.288229645480046 0  0.7562500000000001 0.09660248895515888 0  0.6568633732316684 0.1557582854763441 0  2.099172119769978 0.25625 0  1.002356446954348 0.1010393851523063 0  1.99375 0.08395950269330846 0  1.459960956013612 0.3075 0  1.569025960719943 0.2986889805672169 0  1.03125 0.3278689922742084 0  0.75625 0.3247156761655783 0  1.959375 0.3126371951219512 0  1.749222215368287 0.1025 0  1.275777784631713 0.1025 0  2.2 0.1025 0  1.225938124459196 0.3075 0  1.550777784631713 0.1025 0  1.44375 0.07430640243902442 0  1.16875 0.07430640243902437 0  0.3528655045338512 0.2063263890916129 0  0.5890337614812103 0.08775733857679162 0  0.8504912436891263 0.190072835691683 0  1.899250267340833 0.2229966846119207 0  0.1020898364287272 0.3140258291809757 0  1.766482954545455 0.2934032012195123 0  1.051658316544432 0.2265720188842194 0  0.2 0.3400647632937836 0  1.421109702350723 0.2261157654379721 0  0.4812500000000001 0.41 0  0.4324401666997539 0.3216425986889796 0  0.098916018031319 0.09171660955420841 0  0.9508742791313441 0.2921736960864468 0  2.13125 0 0  2.118919042110979 0.3422084711244843 0  1.30625 0.41 0  0.20625 0 0  1.597888256393107 0.2173787389261347 0  0.4812500000000001 0 0  0.4324082967851086 0.08384041677422771 0  1.829299675393195 0.07400700849299596 0  0.568219932524165 0.3212274660843853 0  1.71875 0.41 0  0.268005226542646 0.08512186835670006 0  1.16875 0.41 0  2.038220665644273 0.332420740103091 0  0.6678017527842831 0.07701763866051195 0  0.89375 0.41 0  0.5111435174287687 0.07335351331957608 0  0.176193934632343 0.0734896648625108 0  0.07390688010811153 0.1697064032433452 0  0.05452951551825875 0.25625 0  0.61875 0.41 0  1.452769549894695 0.1548122580621249 0  1.369219062229598 0.07430640243902442 0  1.30625 0 0  1.720943423819132 0.1714577452753128 0  1.157188124459196 0.205 0  1.094219062229598 0.07430640243902437 0  1.304056576180868 0.1714577452753128 0  1.67579304192913 0.07430640243902437 0  0.2672907219039591 0.3037570723459566 0  1.209670467133757 0.1362100266964769 0  1.58125 0 0  1.03125 0 0  0.06875000000000001 0.41 0  0 0.35875 0  1.58125 0.41 0  1.631724228912893 0.3381867502687533 0  0.8240147050827157 0.1225233169495944 0  1.825608881788174 0.14499488549201 0  1.85625 0 0  1.44375 0 0  1.44375 0.41 0  1.85625 0.41 0  2.13125 0.41 0  0.7562500000000001 0.41 0  0.7562500000000001 0 0  0.89375 0 0  0.34375 0 0  0.34375 0.41 0  0.20625 0.41 0  0.06875000000000001 0 0  1.16875 0 0  1.03125 0.41 0  0.61875 0 0  1.71875 0 0  1.99375 0 0  1.99375 0.41 0  0.3972301426712326 0.2593842555611471 0  1.340625 0.3489494290853124 0  1.134375 0.3489494290853123 0  1.700180620188976 0.3438659752031281 0  0.5003922072260507 0.341765274319271 0  0.6212513815748759 0.2209216137134851 0  0.6885607720119526 0.215393731583638 0  1.033412357328477 0.1612902025713047 0  2.135782184673599 0.07126652247502523 0  1.668441847249787 0.2129203728327609 0  1.295782514339747 0.2378437748815763 0  1.409375 0.3520314716057996 0  2.129248544730567 0.1906135162504124 0  2.060771381434487 0.1989445750470348 0  2.013252586573865 0.1496169464686054 0  1.942766402200229 0.1734448904596831 0  1.895522487186454 0.06076163953489683 0  2.069553871656643 0.06605731020975725 0  0.9281250000000001 0.3539050257418612 0  1.274680914880868 0.3520219391081363 0  0.3030138498135347 0.2488370856812789 0  0.8223773249563684 0.341761430177996 0  0.9018164060227267 0.2326477848736739 0  0.8143027982392851 0.2440265179987191 0  0.7225087161029304 0.2699907246386231 0  1.614713220494657 0.09473434380863296 0  0.378125 0.3566194660323104 0  0.309375 0.3566194660323104 0  1.72990325744076 0.2380068107952482 0  0.6915936999299305 0.3429472631234433 0  0.6268087624932918 0.3466455500035671 0  1.356580098625191 0.2120393231351682 0  0.3060160055995138 0.1590148921620778 0  0.3954648733249218 0.156380553890791 0  2.034370752044885 0.2668681600792073 0  1.51768709249349 0.3426260931494756 0  1.561883724969884 0.1650446847858835 0  1.197344062229598 0.2523725417393646 0  0.9281250000000001 0.05124999999999999 0  1.804085235518364 0.3468178408964637 0  1.817887819205233 0.2589243285818559 0  0.9107805776841645 0.1653834539923287 0  1.905897727272727 0.3485060975609756 0  0 0.05125 0  0.844212276491354 0.0614201194265309 0  0.378125 0.05244637078450034 0  1.008571329007178 0.2705955969954818 0  0.7724048032149464 0.1559079561351474 0  0.7203054377831548 0.04941826955193545 0  1.192836486056382 0.3562350748565544 0  0.5967108020713719 0.1479294686523888 0  1.28257088594801 0.2944411014911587 0  0.7041890234548132 0.1222025174424443 0  1.474860187679412 0.2504218616229368 0  1.406767003493824 0.2829282258560709 0  0.3201325899091991 0.05890121548989159 0  0.5979220912872258 0.2727591995766724 0  1.845656689180403 0.1998310418452388 0  2.144958525570388 0.2909790873294231 0  2.2 0.15375 0  1.57794966442982 0.3540357145964566 0  0.9483181579620558 0.1214693369582054 0  0.0496154796471391 0.333125 0  1.508991196088596 0.1421783375065625 0  0.09776612425612034 0.2204896805326566 0  1.50436820029908 0.06143401634903343 0  1.223857000523521 0.0823554862453532 0  0.2531953886959507 0.3582003209055908 0  1.153316824384777 0.1289850171317837 0  2.148922302309752 0.1258841779285271 0  1.621993280276081 0.2841214267927899 0  1.550118654119087 0.2461998729100966 0  1.327182649291491 0.1216967252533594 0  1.753125 0.04556020050186112 0  1.271875 0.04556020050186116 0  0.9824282234771738 0.05051969257615314 0  1.039510847866381 0.05683351822678641 0  1.94956388244759 0.1180512551534177 0  1.949997712993411 0.04965831614304109 0  1.771961817615021 0.1530278789497521 0  1.909246823951428 0.2812757146784527 0  1.101974016627944 0.2038045618205013 0  0.7906250000000001 0.0444674049654372 0  1.948575539857022 0.2445328248721197 0  1.697271520964565 0.1233917627620729 0  1.065625 0.3689344961371042 0  1.085849084308977 0.3170853572226867 0  0.9840604787624379 0.3582077516409966 0  1.577403511714593 0.05463601888079143 0  0.05622663515370135 0.05493816910862376 0  0.8762396958822678 0.3392249777398821 0  1.751571320346033 0.3651102912045228 0  1.055327852410105 0.111864799513911 0  0.1583785085108421 0.2994699345738728 0  0.1455283439499995 0.3542795598723423 0  2.2 0.35875 0  0.225705107073232 0.05084786997482401 0  0.1455852234589313 0.1166494778469164 0  1.466879772203159 0.3611261772912453 0  1.990280163552011 0.3564754268533217 0  1.17471064520912 0.2990917256188288 0  0.7221925551074015 0.1739659241003985 0  0 0.25625 0  2.2 0.25625 0  2.2 0.05125 0  0 0.15375 0  1.853978576207987 0.35875 0  0.21965520498276 0.1015543880164422 0  1.515638456102889 0.2882700110184686 0  0.09048297387599738 0.3637717362208066 0  2.150453692751374 0.2387066338105111 0  1.323782677156475 0.04897634338873398 0  1.409375 0.03715320121951221 0  1.406484531114799 0.1087852750766809 0  1.134375 0.03715320121951218 0  1.627401732573545 0.04552157221025036 0  0.446875 0.3713289093361426 0  2.045405893604797 0.1105340662939892 0  1.255408269734577 0.1577307500159216 0  2.028125 0.03707597992059326 0  0.04420832937638274 0.128125 0  0.5817551710628505 0.3702615006034757 0  0.1197849154434487 0.2663398672460083 0  1.248258025468107 0.2565907092181813 0  0.1300647302703173 0.0508462728378621 0  0.7738123537510222 0.2761231499240648 0  1.203125 0.0366132337404304 0  0.5444207041612499 0.111205399508622 0  0.8016457771828226 0.1964238426015905 0  2.072662025974815 0.2975086504196739 0  0.4019040438866802 0.2103993403217561 0  0.4677372330974851 0.04827477407630658 0  0.8677218578847617 0.1432970430140788 0  1.058011122005847 0.2758866204059919 0  0.4429405887974043 0.2746184809910084 0  0.5843750000000001 0.03726989681835222 0  0.6318596133730142 0.1128692182767254 0  0.4862628454464408 0.2957029785303028 0  0.7805186758662764 0.3673578380827891 0  1.887722846421017 0.1760882698830035 0  0.3498893058880703 0.256189258793856 0  1.472640588990488 0.1118278026240017 0  1.865937103925594 0.2604137786483804 0
[...]
<PointData  Scalars="f_43"> 
<DataArray  type="Float64"  Name="f_43"  format="ascii">4.4512755361692624e-01  4.7560879952198337e-01  5.5528046518870520e-10  6.5834798636945657e-10  -3.3907297965958888e-01  -3.0304594136580304e-01  -3.2603913556995195e-01  -4.9353048853494969e-01  -9.1082700481936296e-01  8.8509410162662461e-01  2.0190072685865728e+00  4.2267935497832693e-01  -1.1357794340461096e+00  -4.8609133082744960e-01  -2.5767136863094081e-01  -2.3264959211389408e-01  -2.6700997993999737e-01  -4.3524654930496154e-01  -1.0721307498229737e-01  -8.5966905254655571e-02  -2.7027190345001423e-01  -1.1866850137006697e-01  -5.0762862644091793e-02  -5.0008413494244208e-01  9.2209665879870468e-03  7.8722693016009837e-01  8.8090840128002210e-03  -1.7904482242730374e-01  -1.7641663670440089e-01  2.2716061469562492e-02  4.3357088978599544e-02  3.2577914823214794e-02  3.3809692862123313e-02  3.8141188105801131e-02  2.7870090031165889e-02  1.9400267926067850e-02  2.4424916511723963e-02  -6.5585026156060433e-02  -6.7392863474197387e-02  3.6308312670107847e-02  2.4654961973969665e-02  3.4224548909366603e-02  3.1643202294175159e-02  -6.0297994060720026e-10  -3.7810964418859221e-02  1.7663647112671276e-02  1.0186320988601456e-02  -1.2857906431833302e-01  1.3992453807261931e-02  4.7321823730530009e-11  -1.2738543350951059e-01  2.4967707237153049e-02  3.8157105138079177e-02  3.2697037124684004e-02  2.9950716083775437e-02  3.9400391303235312e-02  -1.4373218223312242e-02  -2.6052432851993199e-02  -1.7057335333883578e-01  3.9234337026755628e-01  3.6990336924120298e-01  -1.5451416059332945e-01  2.6356281043724148e-02  2.2712536346436371e-02  2.5587795697156503e-02  3.3375063555491302e-02  2.6885042550328381e-02  2.9239537062415451e-02  2.7517920539845933e-02  -2.3321717517870963e-01  2.1657091389448813e-02  9.0809098452286161e-03  2.5165070527849755e-02  -1.2524083866656164e-02  -1.0642070334974951e-02  -2.7323356322261738e-01  5.4171416859443389e-01  5.7554935050931433e-01  -1.6799159997351809e-01  -8.0517547344272355e-02  -1.7972790722733353e-01  8.9094170249674944e-03  9.7382356622408312e-03  1.3798495392042826e-02  3.5764478200704358e-02  3.9808560896937906e-02  -3.7651188494715083e-03  -8.2249036364555578e-02  2.3117044685604590e-02  3.2199395274391598e-02  3.2898337003690672e-02  -6.7945792702418355e-10  2.8104762039993150e-02  3.0976310988042984e-02  3.5719600175073404e-02  1.5901944976663668e-02  -3.3198330009823496e-01  -1.9658629360327565e-01  2.5548527573087038e-02  2.4196068115404954e-02  4.8518099210469706e-01  2.3382122479893484e-02  3.3533262575513319e-02  1.7359804157439968e-01  3.4860749556211629e-02  -1.7733571291407321e-01  -1.9280989695370099e-01  5.1413634434932420e-01  -2.3778640815379239e-03  5.5098705606072291e-03  7.9119546374524438e-03  2.5481010402874711e-02  2.2009386296906214e-01  3.5899669170025558e-02  -1.8469052137379091e-01  -1.9026247630121340e-01  2.7597814639897598e-02  -2.0195666278504540e-01  2.6786799927525345e-02  -1.2671397630630560e-01  2.1387821104311377e-02  1.6963217266047780e-02  -1.4065033390644224e-01  -4.3353344226427573e-02  -1.9912570238022559e-01  2.3672939640513097e-01  9.1970661625827999e-01  7.4225798822847444e-01  -1.5719850968919494e-01  3.4492074968124904e-02  3.9198778665337823e-02  3.5146133388470877e-02  3.1828731665745805e-02  3.1736983599193788e-02  1.0744003841259559e-02  3.6549568086458560e-02  3.4073433481140676e-02  -1.6463761778431010e-01  2.8097841811936433e-02  3.2613788535801429e-02  1.4109778065076173e-03  4.3296396956764327e-01  4.5729967675234096e-01  3.8458531587947577e-02  3.4788330315929421e-02  -2.1130534930940487e-02  2.8022371505755039e-02  2.5164991188791824e-02  3.5693354815521688e-02  3.4240201367784627e-02  2.5576002251316746e-02  6.5800771436243348e-03  -9.4863547114956509e-02  -9.7093252691386203e-02  -3.8880487761731010e-02  -1.1495607166346017e-01  -8.5232310542026249e-02  2.1978066137614577e-01  4.6128747387807328e-01  1.6388414039456900e-02  -8.7610697259415497e-03  -1.5643920760383767e-01  3.3093364060824748e-02  1.4329068559878397e-02  2.0307034231070633e-02  -3.1652537587118057e-01  2.4822039248529441e-02  1.7678790648782729e-02  2.7095170200681230e-02  -1.9096059881920796e-01  -2.2152136809935533e-01  -1.3219731164733925e-01  2.9384728066409023e-02  5.2838569296252760e-03  3.0522426048219403e-02  2.7167397491945414e-02  2.9744646747369020e-02  5.6425023579673075e-03  1.1645519389869118e-02  1.3141278222480618e-02  1.7058123788825159e-02  2.1887394554864433e-02  9.8866450056429959e-03  -3.1754108527929183e-02  2.5633800785747514e-02  -3.3077614162185803e-01  -5.7267362214443708e-02  2.5279169907983970e-02  2.7196829804524815e-03  -8.8490239800898915e-02  3.2389622207548124e-02  -1.4521794099114785e-01  -6.2076197369865881e-02  2.3827178984150581e-02  -1.2321133520812814e-01  -1.5858119835105561e-01  3.1050898748014102e-02  -3.2797409687522427e-01  -3.4744577281623917e-01  1.7209905377787816e-02  4.0456023975215152e-02  3.1280576383832130e-02  3.1150382416246250e-02  -2.3135237988865302e-02  2.4135925343626040e-02  2.4661654561760615e-02  3.6414359336382783e-02  2.5540735723742793e-02  4.8853814887548047e-01  -5.3340897428139362e-02  -1.6648363797208374e-01  1.7039732245160300e-02  -3.7216797823490431e-02  -1.0957662953412219e-01  2.4969665484346416e-02  -2.2953551720961890e-01  2.6695306539280369e-02  -1.1806238717297689e-01  3.9096901130805412e-02  3.1646742981217786e-02  -1.0993457187024736e-01  -2.2895562134043168e-01  2.4925970510371299e-02  4.6613171389458452e-03  -4.9002780767636878e-10  3.9491420965221305e-02  1.4360632135887412e-02  4.8071333135608402e-01  3.1664629877060001e-02  1.1393438715187953e+00  3.1977641525555718e-02  2.4105718142424796e-02  5.3381338425174674e-02  2.1953149448666862e-02  4.7401449637758560e-03  3.5353014614591574e-02  4.0220619528361992e-02  3.7607739934440838e-02  3.1878202331678228e-02  3.1234822362987986e-02  -6.4462560259618109e-03  4.7277249168332499e-03  1.6738168793869277e-02  1.7123128903538284e-02  3.1376650376688783e-02  2.5058566431927238e-02  3.2189733251847062e-02  -7.8996539796805154e-02  2.3406627718477315e-02  3.3492959205845739e-02  2.0295336118479721e-04  1.1144197849749902e-02  -1.9681364630023346e-02  3.1844433233185421e-02  4.8171072902367673e-01  -3.9778570794579145e-02  2.4575036396363072e-02  1.5932286849688754e-02  2.5288121289086363e-01  3.4428444278092718e-01  -4.2363525088139805e-09  1.2183625730709177e-01  3.6013636329193172e-01  3.6371108050504058e-02  2.0779193914834314e-02  2.7355218234392558e-02  -9.1014384213010169e-02  6.9294574699626177e-01  4.7321823730530009e-11  -1.6180828076873417e-10  7.1915388099262401e-01  2.5534378819166460e-02  -1.1724488096109051e-01  4.0082842865200516e-02  4.2432077726709910e-01  1.8826938266039578e-03  3.7147614199361835e-02  3.7538076820888937e-02  3.7672006601814280e-02  1.2024503715522781e-02  3.3321434304438909e-02  -1.7049793911081315e-01  1.1356674205235718e-02  3.3937415772227607e-02  1.2132051207546278e-02  6.6237641833994754e-01  -1.6963589813554256e-01  6.8863384549845297e-01  2.8131368220178806e-02  3.9789534683924671e-01  -4.3115963633019762e-02  2.0487424037528113e-02  -2.5394987784541972e-01  5.4088785299756677e-04  1.3501910582969689e-02  -3.1046198648821888e-01  -1.8252796886287442e-01  1.6222981749803064e-02  2.0795641342776776e-02  -1.9305165129299595e-01  -1.6956688886198781e-01  -1.8519002374185772e-01  -2.0192290999080112e-01  -8.0731458490783156e-02  2.2308888338142166e-02  -3.3572616671613587e-01  3.3766201703866044e-02  2.5478099840001111e-02  2.8672312811078914e-02  3.6453907196184597e-02  -1.0790321784032353e-01  2.6598919067112113e-02  -1.1094242699756059e-01  -1.5219978045436761e-01  -1.0275354137573553e-01  3.3606579535841487e-02  -2.0170364186544379e-01  -1.7527082809888933e-01  2.5232860436556190e-02  -2.6917368083585907e-01  -2.1736008332736284e-01  2.3278111867519151e-02  7.4302570986512157e-03  3.6023747474914096e-02  -2.8909694027917689e-02  1.7390949722110364e-02  -3.2354557118581290e-01  -3.3526272654117401e-01  3.2413896112727707e-02  -3.3811739097653876e-01  9.2712531537228338e-01  2.3664520693112569e-02  8.6235608314881351e-01  2.1081672515184582e-02  1.7134964513334187e-02  -1.6115195418101417e-02  2.9085735942756792e-03  1.0318306666155599e-02  1.2860644116665666e-02  -6.2061262246638832e-03  2.1920804636395352e-02  3.5872452381153996e-02  -1.3749664611134049e-01  -2.6616431987923012e-01  3.0067244892908504e-02  -5.3662893480694106e-02  1.9756327917675523e-02  3.1337275913971556e-02  2.9325656476619447e-02  3.4005275525998101e-02  3.2591369693487686e-02  -1.7984304409908872e-01  -1.7553948139866449e-01  3.9714694178961209e-02  3.3800871685043317e-02  3.3513383936548666e-02  3.3610925401597728e-03  3.5536063748856160e-03  4.4263465470983687e-01  -2.8010306838714871e-01  -1.5539480316621414e-02  3.3558474545853416e-02  2.9473140294525597e-02  2.4652210956542461e-02  -6.0819281664568556e-02  3.2260062933477864e-02  2.3583481947203926e-02  -3.6820290103467081e-02  3.2961462435469560e-02  2.5235470776058675e-02  2.4200216746594103e-02  3.1614657897060028e-01  3.1105680707196041e-02  -1.8448830108125036e-01  -1.8223778585086051e-01  7.1879691766189571e-03  3.0487823376554507e-01  1.1364971982268971e-02  -1.0740327561621913e-02  3.5455512617279805e-02  -2.2768813493293516e-01  2.5997692819058019e-02  9.2954823834065330e-03  3.4186387782372617e-02  3.8000869552532651e-02  -2.4673174134246989e-01  -1.4148561826000886e-01  2.8505290763662584e-02  1.4840071900973159e-02  3.3531458251096574e-02  2.6200168977873289e-02  3.6904554889950127e-02  3.9710195018746470e-03  4.3728782987289133e-01  2.5177888839689647e-02  -1.2816791675600889e-01  -1.8856977694748855e-01  -1.0392012826254814e-01  1.4384011293343633e-02  -3.1635595904996860e-01  2.5432037153738221e-02  -5.3020943513588034e-02  2.5180610928971111e-02  2.2306546965049349e-02  1.8706895289708064e-02  -6.5922548233891352e-03  3.1808845845675636e-02  3.3531716397987348e-02  3.3910297916321067e-02  3.3541116858193901e-02  4.7293199002949737e-01  4.4548065151571792e-01  1.6706757462626332e-02  3.6708037917862493e-02  -5.4378859070668702e-02  -5.2501153771988426e-02  5.4886590228036903e-03  9.5042499182581720e-03  5.7755964542831817e-01  -2.1613567570762790e-01  7.1400633149731707e-01  -1.5509122454831842e-01  3.0811419863610558e-02  -7.7822558433093728e-02  -1.9626272805459494e-02  -2.3633749249478819e-01  3.3166930325559556e-02  7.8335599715673176e-01  -1.6472932615111904e-01  1.1836299763644656e-02  3.6034737652291808e-02  2.7511158715555539e-01  4.0563828142975371e-02  6.1803257221341901e-01  3.1959841011446700e-02  -1.0730265326314183e-01  2.6091367950520434e-02  3.1773589621395072e-02  3.2741708301207810e-02  3.5979613851639052e-02  3.8439877829865715e-02  3.8443158431752701e-02  1.6524538575192049e-02  3.3327020648218610e-02  3.8222873012897486e-02  -1.7506067728458385e-01  1.4910104742545702e-02  -1.9446523573850691e-01  -1.4375047954043851e-01  2.1555526402461611e-02  3.0513835433330489e-02  5.4984722645850537e-01  3.8079677668497021e-02  3.0599315959433836e-02  2.5424368903380284e-01  4.5647945778368132e-01  -1.7573554604702939e-02  5.1889134550489002e-01  3.4950077536727998e-02  -4.7582824230001153e-02  3.2221391439625671e-02  -1.8401733148903421e-01  3.9980987140865738e-02  2.7739933172637531e-02  -1.5610114576025674e-01  -4.1476361034711515e-02  1.3478217003924592e-02  1.7033703461797122e-02  3.6617009962791637e-02  9.1398166753570379e-03  -2.7294742154142737e-02  5.9208946849109417e-03  1.4578747482556871e-03  2.3279194159173604e-02  3.1147105710671936e-02  -3.2247664739079801e-01  3.8036159564796980e-02  9.3790878472851478e-03  2.9662160777431425e-03  6.7505331424331551e-03  1.9174964689551464e-02  9.0777667241330323e-03  3.2561577980248960e-02  2.5180890798828150e-02  2.8667229275367107e-02  1.6796417253696645e-02  -1.8331678523429212e-01  -1.7755244389462949e-01  1.1826317256083652e-01  -5.9482096807224369e-02  -9.5207824162200860e-02  -1.7995929588315293e-01  -1.5552468908972147e-01  1.3838273216411774e+00  -1.2238109737173683e-03  1.7687423712793038e-01  2.0822810410121999e-02  1.6004417213212538e-02  2.5048506433639102e-02  2.6155256549387003e-02  2.6979750987363195e-02  2.2493153785725205e-02  3.6058036295557781e-02  7.3605604377619538e-03  2.4318482187056682e-02  -3.0523218942459324e-01  -1.8107531203995589e-01  2.5534107250056583e-02  -3.1850644790584864e-01  -2.4435291498474762e-01  2.6049342369785931e-02  -2.7124978403885991e-01  -3.3141113029579766e-01  2.9864306614833653e-02  2.9346362242613767e-02  1.4104344433327858e-02  1.2652242115602829e-02  2.2911710601899046e-02  2.5684219259847294e-02  -2.0382885658991529e-01  1.2669115047480597e-02  2.3133456941315470e-02  3.5215104662467647e-02  1.5790887664800472e-02  3.7475970668122319e-02  2.8613092336394670e-03  7.9630766776238697e-03  3.7314058488042402e-02  3.7409851075569579e-02  2.5292326273594293e-02  2.3319457060004561e-04  3.1772649716406393e-02  -1.1240333016035314e-01  -2.5813443842288151e-02  -3.4339398426340380e-02  3.0855450193628869e-02  1.2515798500798734e-02  3.1062375844238747e-03  5.9236366132347602e-03  -1.6940296512987432e-01  -1.4926892086052110e-01  -1.2625859400736650e-01  4.0995649996917705e-01  1.3107562316446858e-01  -7.9457667045316371e-02  -1.7080575614341684e-01  -1.6926373529738079e-01  -8.2059017688137059e-02  -3.1995668665528700e-02  -9.5796356608756489e-02  -1.3808762573369182e-01  -1.4320796581987327e-01  2.1143939812480167e-02  3.3273559173988346e-02  1.6674332484449432e-02  3.1300741471532986e-02  1.2223645628219601e-02  2.2661561525586491e-02  -5.3109120488832543e-03  2.6399456883664178e-02  -1.3293248329188365e-01  1.2921081472977887e-02  2.7306655577520895e-02  3.5892957119555584e-02  3.3683552688495114e-02  3.5646661816540234e-02  2.6271162729700953e-02  -6.7688220674341548e-02  -3.7118257661811142e-02  -2.9722742325534329e-01  -3.1788155777411597e-01  -1.3414986942021540e-01  1.9987484045716365e-02  2.7607782298213687e-02  2.6822090217892950e-02  2.8666743939994636e-02  4.1270222812819646e-01  2.4166849916375154e-02  4.0899967274281503e-02  3.9025459873207713e-02  -8.2086646190060494e-02  2.0814176409542091e-02  3.0793781011350713e-01  3.3406209874309804e-02  3.2087109695485130e-02  2.6061335970304158e-02  2.5671439605276680e-02  2.3133814307553811e-02  -1.1938754703516372e-01  2.7586281757523309e-02  -4.7988425868014079e-02  2.7755365040386511e-02  2.9440858400792112e-02  3.1011625732421909e-02  -1.4395317133846772e-01  2.4888113289592135e-02  3.8529577634957381e-02  7.5737072709311470e-01  -1.7014067006071104e-01  8.9532767885672927e-03  3.2690143206340547e-02  -2.4612281743089243e-01  -4.9717757829936420e-02  1.0228088168748784e-02  9.0083063608530078e-03  3.7102342407130791e-02  8.2103160531137909e-01  2.6888590745408773e-02  3.2531180188594279e-02  2.0756640937014095e-02  1.9163083962842508e-02  3.8822584711440861e-01  1.1922805137907297e-02  3.4912584795971285e-01  -2.7591768529217124e-02  1.6856604725646571e-02  -3.3439904584844815e-01  -3.4284096104762080e-01  2.4739223908617620e-02  -3.3451713251893578e-01  -1.4105761082529068e-02  2.4744894429011677e-02  2.7430318682144423e-02  2.4746670771260453e-02  1.5975300654548337e-02  1.6990233790601779e-02  1.8211403849587870e-03  1.7471838719971097e-02  -7.8311136217079184e-03  3.1451510261935302e-02  -1.7626986186674512e-01  3.1394523837792156e-02  3.3548188465124903e-02  2.5096749317352233e-02  -6.6591198145014546e-02  -1.0059512449039021e-01  -7.5216206506890787e-02  -4.8162841189628935e-02  3.6681073774046502e-02  3.9458061518737916e-02  -2.4066182895878716e-01  -1.5152794786116330e-01  -1.7704035747875949e-01  3.7707076945420789e-02  6.0222346263875970e-01  3.2100966161959232e-02  1.4892536752052814e-02  -8.7928693393302407e-02  3.8550875383279323e-02  -2.1542119699604090e-01  2.5567178295627775e-02  -3.2557508227928483e-01  1.9664171680914215e-02  -1.2992347506792562e-01  -1.5914844794679400e-01  -1.8882939708801413e-01  2.4225599994976307e-02  3.1319576844151285e-02  3.2120777846182363e-02  2.3920168517103255e-02  2.7152197631881300e-02  -8.1136377674695448e-02  1.1427532104711471e+00  2.3842960976220851e-02  -2.4148310612293455e-03  -3.0008761355591623e-01  2.9466736818860136e-02  2.8696403106172899e-02  3.2408052220950063e-02  3.3633479906860102e-02  2.3765374271221672e-02  2.4756783581708929e-02  8.9507874188626477e-03  3.2924769348026059e-02  2.1748886117592233e-02  -1.9561237011875201e-02  -3.4969012811655049e-02  4.7601011539955557e-01  4.7426909464602462e-01  3.1373264659477908e-02  -2.5554374832633964e-01  2.1673977121784808e-02  7.4027924841965995e-03  2.8712251919929505e-02  4.2685773706024948e-03  2.5473735323211736e-02  3.2745956095536363e-02  6.2273440688871151e-01  -2.8525217823856374e-02  4.0848953281643480e-02  9.0498000798744094e-02  2.6426034207826776e-01  -1.0209436938991796e-01  1.4714558760500674e-02  2.5745668273091538e-02  -2.2788404417871339e-01  -2.0676790037966328e-01  -3.2834980588485396e-01  2.9211027810267805e-02  2.5321501978342788e-02  -2.4470442469549034e-01  4.5867188177601825e-01  7.7087839124586555e-01  7.9601356032143050e-03  -1.2687081332311345e-01  2.7518067416769768e-02  3.0700097448398848e-02  3.3077996684414634e-02  2.5410282569649983e-02  -6.0297994060720026e-10  -1.8943488459225313e-01  3.2076516785836097e-02  2.9707743359934217e-03  -1.9627403014521114e-01  -1.8875694604928811e-01  1.3881729087999379e-02  -1.2207214263004196e-01  4.0954627968607177e-01  3.9441425241971462e-01  2.5341971511006232e-02  3.2612433945480822e-02  3.7244107602966231e-02  3.7971575927632915e-02  3.9232542463478633e-02  3.5930733381460155e-02  2.5772948594729637e-02  -1.6112536675541081e-01  2.9558144905994697e-02  3.4728803562085200e-02  7.7468745115337806e-03  1.7303379620704491e-03  -6.5004901876019941e-02  -2.0315981208954942e-01  2.3910981679842534e-02  -1.0721163631180290e-01  6.3527623715006379e-02  -6.7945792702418355e-10  2.7825612449627338e-02  2.6903528528700055e-02  2.5469517621243533e-02  -1.3244231143045634e-01  3.3021398216704897e-02  9.8057170434705486e-03  1.5844555981576684e-02  2.7373475877958544e-02  1.4858363694327971e-02  3.7835030077406203e-03  1.9208335380768046e-02  9.2945055763482710e-03  9.7313985167901060e-03  1.5948599455954911e-03  3.2693528060868650e-02  3.4067474942128785e-02  -1.7586330169883493e-02  4.1359755044981950e-01  3.9944969727510925e-03  2.4765900297758953e-02  -4.3245440658750897e-02  5.7225580730156378e-03  5.2360628387129043e-03  2.0972751408318098e-03  -1.8655202140481819e-01  2.5125894711545426e-02  2.1262348360506923e-02  3.4021436695513586e-02  -2.0649134793822985e-01  3.4538206284323150e-02  3.2481975346824815e-02  3.0710507485769725e-02  -1.7171772917560618e-01  -1.8411907642666012e-01  3.1873193740242528e-02  -2.0036456863055588e-01  -2.3245827433701660e-01  -2.2459160099750899e-01  2.4403406878803491e-02  1.8530033803745717e-02  3.4652321869375363e-02  -4.0310284459682227e-01  2.6862111514790586e-02  -1.1795798731556725e-01  3.3567900126022572e-02  3.4002619839328257e-01  -1.9357569515804206e-02  1.1791918996788301e-02  -9.5965943280612281e-02  -6.0297994060720026e-10  1.0976760924474058e+00  8.9829009618928934e-01  -1.2658588471045734e-02  -3.5541939996776142e-02  -1.1618335713128214e-01  3.9987109685866704e-02  3.7246795296924914e-02  -1.0629878575705125e-01  1.9585086197966322e-02  -1.6593135146520810e-01  5.4239652301743679e-01  4.8788821844927510e-01  4.9242989412604882e-01  1.7071208292318125e-02  9.7092791697551972e-03  3.9675306653129301e-02  3.9434443680004351e-02  3.8621985951959904e-02  2.4969328905960025e-02  5.4847388567478328e-01  1.9696231033873749e-02  -3.5742972823948815e-01  3.2482231510693418e-02  2.5297469137248833e-02  2.4067925093430646e-02  1.9367720116054161e-02  1.8480970475962435e-02  -1.7614242943864022e-01  2.5080808298593764e-02  -1.8622135860523326e-01  3.1768438923681634e-02  2.34392816224676