<?xml version="1.0"?>
<VTKFile type="UnstructuredGrid"  version="0.1"  >
<UnstructuredGrid>
<Piece  NumberOfPoints="2426" NumberOfCells="4534">
<Points>
<DataArray  type="Float64"  NumberOfComponents="3"  format="ascii">0 0.41 0  0 0 0  2.2 0 0  2.2 0.41 0  0.2404508497187474 0.2293892626146237 0  0.25 0.2 0  0.2404508497187474 0.1706107373853764 0  0.2154508497187474 0.1524471741852423 0  0.1845491502812526 0.1524471741852423 0  0.1595491502812526 0.1706107373853764 0  0.15 0.2 0  0.1595491502812526 0.2293892626146237 0  0.1845491502812527 0.2475528258147577 0  0.2154508497187474 0.2475528258147577 0  0.5404508497187474 0.2293892626146237 0  0.55 0.2 0  0.5404508497187474 0.1706107373853764 0  0.5154508497187473 0.1524471741852423 0  0.4845491502812526 0.1524471741852423 0  0.4595491502812526 0.1706107373853764 0  0.45 0.2 0  0.4595491502812526 0.2293892626146237 0  0.4845491502812526 0.2475528258147577 0  0.5154508497187473 0.2475528258147577 0  1.1 0 0  0 0.205 0  1.1 0.41 0  0.55 0 0  0.55 0.41 0  0.275 0 0  0.275 0.41 0  1.65 0.41 0  1.65 0 0  1.375 0 0  1.375 0.41 0  1.925 0 0  1.925 0.41 0  0.8250000000000001 0.41 0  0.8250000000000001 0 0  1.5125 0.205 0  1.7875 0.205 0  0.9625000000000001 0.205 0  1.2375 0.205 0  2.2 0.205 0  0.7560964076246335 0.2151713709677419 0  1.99375 0.2152743902439024 0  2.0625 0 0  0.6875 0 0  2.0625 0.41 0  2.2 0.3075 0  0.6875 0.41 0  1.7875 0.41 0  1.375 0.1486128048780488 0  1.5125 0 0  1.7875 0 0  1.5125 0.41 0  0.9625000000000001 0 0  0.9625000000000001 0.41 0  0.4125 0 0  0.1375 0 0  0.1375 0.41 0  0.4125 0.41 0  1.2375 0 0  1.1 0.1486128048780487 0  1.2375 0.41 0  1.65 0.1486128048780487 0  1.126715909090909 0.2793064024390244 0  1.676715909090909 0.2793064024390244 0  1.348284090909091 0.2793064024390244 0  0.34375 0.3032389320646208 0  1.894702181800738 0.1282910975492754 0  2.092797818199262 0.1282910975492754 0  1.85625 0.3075 0  0.8630851210521902 0.286932093388664 0  0.89375 0.1025 0  0.35 0.1090282786671641 0  0 0.3075 0  0 0.1025 0  0.6526217841291382 0.288229645480046 0  0.7562500000000001 0.09660248895515888 0  0.6568633732316684 0.1557582854763441 0  2.099172119769978 0.25625 0  1.002356446954348 0.1010393851523063 0  1.99375 0.08395950269330846 0  1.459960956013612 0.3075 0  1.569025960719943 0.2986889805672169 0  1.03125 0.3278689922742084 0  0.75625 0.3247156761655783 0  1.959375 0.3126371951219512 0  1.749222215368287 0.1025 0  1.275777784631713 0.1025 0  2.2 0.1025 0  1.225938124459196 0.3075 0  1.550777784631713 0.1025 0  1.44375 0.07430640243902442 0  1.16875 0.07430640243902437 0  0.3528655045338512 0.2063263890916129 0  0.5890337614812103 0.08775733857679162 0  0.8504912436891263 0.190072835691683 0  1.899250267340833 0.2229966846119207 0  0.1020898364287272 0.3140258291809757 0  1.766482954545455 0.2934032012195123 0  1.051658316544432 0.2265720188842194 0  0.2 0.3400647632937836 0  1.421109702350723 0.2261157654379721 0  0.4812500000000001 0.41 0  0.4324401666997539 0.3216425986889796 0  0.098916018031319 0.09171660955420841 0  0.9508742791313441 0.2921736960864468 0  2.13125 0 0  2.118919042110979 0.3422084711244843 0  1.30625 0.41 0  0.20625 0 0  1.597888256393107 0.2173787389261347 0  0.4812500000000001 0 0  0.4324082967851086 0.08384041677422771 0  1.829299675393195 0.07400700849299596 0  0.568219932524165 0.3212274660843853 0  1.71875 0.41 0  0.268005226542646 0.08512186835670006 0  1.16875 0.41 0  2.038220665644273 0.332420740103091 0  0.6678017527842831 0.07701763866051195 0  0.89375 0.41 0  0.5111435174287687 0.07335351331957608 0  0.176193934632343 0.0734896648625108 0  0.07390688010811153 0.1697064032433452 0  0.05452951551825875 0.25625 0  0.61875 0.41 0  1.452769549894695 0.1548122580621249 0  1.369219062229598 0.07430640243902442 0  1.30625 0 0  1.720943423819132 0.1714577452753128 0  1.157188124459196 0.205 0  1.094219062229598 0.07430640243902437 0  1.304056576180868 0.1714577452753128 0  1.67579304192913 0.07430640243902437 0  0.2672907219039591 0.3037570723459566 0  1.209670467133757 0.1362100266964769 0  1.58125 0 0  1.03125 0 0  0.06875000000000001 0.41 0  0 0.35875 0  1.58125 0.41 0  1.631724228912893 0.3381867502687533 0  0.8240147050827157 0.1225233169495944 0  1.825608881788174 0.14499488549201 0  1.85625 0 0  1.44375 0 0  1.44375 0.41 0  1.85625 0.41 0  2.13125 0.41 0  0.7562500000000001 0.41 0  0.7562500000000001 0 0  0.89375 0 0  0.34375 0 0  0.34375 0.41 0  0.20625 0.41 0  0.06875000000000001 0 0  1.16875 0 0  1.03125 0.41 0  0.61875 0 0  1.71875 0 0  1.99375 0 0  1.99375 0.41 0  0.3972301426712326 0.2593842555611471 0  1.340625 0.3489494290853124 0  1.134375 0.3489494290853123 0  1.700180620188976 0.3438659752031281 0  0.5003922072260507 0.341765274319271 0  0.6212513815748759 0.2209216137134851 0  0.6885607720119526 0.215393731583638 0  1.033412357328477 0.1612902025713047 0  2.135782184673599 0.07126652247502523 0  1.668441847249787 0.2129203728327609 0  1.295782514339747 0.2378437748815763 0  1.409375 0.3520314716057996 0  2.129248544730567 0.1906135162504124 0  2.060771381434487 0.1989445750470348 0  2.013252586573865 0.1496169464686054 0  1.942766402200229 0.1734448904596831 0  1.895522487186454 0.06076163953489683 0  2.069553871656643 0.06605731020975725 0  0.9281250000000001 0.3539050257418612 0  1.274680914880868 0.3520219391081363 0  0.3030138498135347 0.2488370856812789 0  0.8223773249563684 0.341761430177996 0  0.9018164060227267 0.2326477848736739 0  0.8143027982392851 0.2440265179987191 0  0.7225087161029304 0.2699907246386231 0  1.614713220494657 0.09473434380863296 0  0.378125 0.3566194660323104 0  0.309375 0.3566194660323104 0  1.72990325744076 0.2380068107952482 0  0.6915936999299305 0.3429472631234433 0  0.6268087624932918 0.3466455500035671 0  1.356580098625191 0.2120393231351682 0  0.3060160055995138 0.1590148921620778 0  0.3954648733249218 0.156380553890791 0  2.034370752044885 0.2668681600792073 0  1.51768709249349 0.3426260931494756 0  1.561883724969884 0.1650446847858835 0  1.197344062229598 0.2523725417393646 0  0.9281250000000001 0.05124999999999999 0  1.804085235518364 0.3468178408964637 0  1.817887819205233 0.2589243285818559 0  0.9107805776841645 0.1653834539923287 0  1.905897727272727 0.3485060975609756 0  0 0.05125 0  0.844212276491354 0.0614201194265309 0  0.378125 0.05244637078450034 0  1.008571329007178 0.2705955969954818 0  0.7724048032149464 0.1559079561351474 0  0.7203054377831548 0.04941826955193545 0  1.192836486056382 0.3562350748565544 0  0.5967108020713719 0.1479294686523888 0  1.28257088594801 0.2944411014911587 0  0.7041890234548132 0.1222025174424443 0  1.474860187679412 0.2504218616229368 0  1.406767003493824 0.2829282258560709 0  0.3201325899091991 0.05890121548989159 0  0.5979220912872258 0.2727591995766724 0  1.845656689180403 0.1998310418452388 0  2.144958525570388 0.2909790873294231 0  2.2 0.15375 0  1.57794966442982 0.3540357145964566 0  0.9483181579620558 0.1214693369582054 0  0.0496154796471391 0.333125 0  1.508991196088596 0.1421783375065625 0  0.09776612425612034 0.2204896805326566 0  1.50436820029908 0.06143401634903343 0  1.223857000523521 0.0823554862453532 0  0.2531953886959507 0.3582003209055908 0  1.153316824384777 0.1289850171317837 0  2.148922302309752 0.1258841779285271 0  1.621993280276081 0.2841214267927899 0  1.550118654119087 0.2461998729100966 0  1.327182649291491 0.1216967252533594 0  1.753125 0.04556020050186112 0  1.271875 0.04556020050186116 0  0.9824282234771738 0.05051969257615314 0  1.039510847866381 0.05683351822678641 0  1.94956388244759 0.1180512551534177 0  1.949997712993411 0.04965831614304109 0  1.771961817615021 0.1530278789497521 0  1.909246823951428 0.2812757146784527 0  1.101974016627944 0.2038045618205013 0  0.7906250000000001 0.0444674049654372 0  1.948575539857022 0.2445328248721197 0  1.697271520964565 0.1233917627620729 0  1.065625 0.3689344961371042 0  1.085849084308977 0.3170853572226867 0  0.9840604787624379 0.3582077516409966 0  1.577403511714593 0.05463601888079143 0  0.05622663515370135 0.05493816910862376 0  0.8762396958822678 0.3392249777398821 0  1.751571320346033 0.3651102912045228 0  1.055327852410105 0.111864799513911 0  0.1583785085108421 0.2994699345738728 0  0.1455283439499995 0.3542795598723423 0  2.2 0.35875 0  0.225705107073232 0.05084786997482401 0  0.1455852234589313 0.1166494778469164 0  1.466879772203159 0.3611261772912453 0  1.990280163552011 0.3564754268533217 0  1.17471064520912 0.2990917256188288 0  0.7221925551074015 0.1739659241003985 0  0 0.25625 0  2.2 0.25625 0  2.2 0.05125 0  0 0.15375 0  1.853978576207987 0.35875 0  0.21965520498276 0.1015543880164422 0  1.515638456102889 0.2882700110184686 0  0.09048297387599738 0.3637717362208066 0  2.150453692751374 0.2387066338105111 0  1.323782677156475 0.04897634338873398 0  1.409375 0.03715320121951221 0  1.406484531114799 0.1087852750766809 0  1.134375 0.03715320121951218 0  1.627401732573545 0.04552157221025036 0  0.446875 0.3713289093361426 0  2.045405893604797 0.1105340662939892 0  1.255408269734577 0.1577307500159216 0  2.028125 0.03707597992059326 0  0.04420832937638274 0.128125 0  0.5817551710628505 0.3702615006034757 0  0.1197849154434487 0.2663398672460083 0  1.248258025468107 0.2565907092181813 0  0.1300647302703173 0.0508462728378621 0  0.7738123537510222 0.2761231499240648 0  1.203125 0.0366132337404304 0  0.5444207041612499 0.111205399508622 0  0.8016457771828226 0.1964238426015905 0  2.072662025974815 0.2975086504196739 0  0.4019040438866802 0.2103993403217561 0  0.4677372330974851 0.04827477407630658 0  0.8677218578847617 0.1432970430140788 0  1.058011122005847 0.2758866204059919 0  0.4429405887974043 0.2746184809910084 0  0.5843750000000001 0.03726989681835222 0  0.6318596133730142 0.1128692182767254 0  0.4862628454464408 0.2957029785303028 0  0.7805186758662764 0.3673578380827891 0  1.887722846421017 0.1760882698830035 0  0.3498893058880703 0.256189258793856 0  1.472640588990488 0.1118278026240017 0  1.865937103925594 0.2604137786483804 0
[...]
<PointData  Scalars="f_43"> 
<DataArray  type="Float64"  Name="f_43"  format="ascii">4.2766812236030721e-01  4.5827485892370479e-01  -4.9401113841492763e-09  -6.3235410124195943e-09  -3.5669237298793782e-01  -3.2049108358871159e-01  -3.4328161889139608e-01  -5.1066799751133252e-01  -9.2809801904637013e-01  8.6761213300790330e-01  2.0016018392734050e+00  4.0534954060773909e-01  -1.1532331518156456e+00  -5.0381904438109437e-01  -2.7677576494526762e-01  -2.5039410136169071e-01  -2.8343028880031290e-01  -4.5082539053782478e-01  -1.1850004513915818e-01  -9.9507464707847382e-02  -2.8814655569278963e-01  -1.4008960287430372e-01  -7.5425319452263065e-02  -5.2005553354302658e-01  -1.2709202994849178e-02  7.6982681006160236e-01  -4.1679239282015395e-03  -1.9449451388025182e-01  -1.9516970134349673e-01  5.4870438632325710e-03  2.5867051619198299e-02  1.7216577353078015e-02  1.7029775695512502e-02  2.4016573846457393e-02  8.5090137101769409e-03  1.2386069683043557e-02  1.6009404616934945e-02  -8.2394480799454481e-02  -8.4821896242854550e-02  1.3116384451610645e-02  -1.5624104665700900e-03  1.6501149250637188e-02  9.0361625572156021e-03  -2.3744836705368109e-08  -5.3058254055885816e-02  5.8015369091122902e-03  9.3666249926777356e-03  -1.4316608996722285e-01  1.9204190795550826e-02  -7.0230795177717372e-09  -1.4658076456081501e-01  3.3215919301828110e-03  2.6400400099600676e-02  1.2063133482821908e-02  1.5635713197889419e-02  3.2642349601742372e-02  -3.2189633274622091e-02  -4.3305537649039126e-02  -1.8752885687622470e-01  3.7505930131038778e-01  3.5240545932769307e-01  -1.7205758903914442e-01  1.3470331868105442e-02  -1.3553068756510047e-03  2.1923551228498683e-03  1.8167643296966410e-02  1.3653415446047135e-02  1.0590724180434415e-02  4.0521724211014321e-03  -2.4958491011391440e-01  1.3796875226531611e-02  1.0690564335874564e-02  1.1015394565007181e-02  -3.1363764430624955e-02  -2.7180774345761591e-02  -2.9193233407772629e-01  5.2427084446260752e-01  5.5819603136868878e-01  -1.8713619136808043e-01  -9.7817005468494755e-02  -1.9349064412499969e-01  9.1847862554654096e-03  -9.4993840999762890e-03  5.6006475353876563e-03  2.7594245618414892e-02  3.2182288843665162e-02  -1.8597223022457213e-02  -9.9546456208011183e-02  1.7487355014454919e-02  1.4930770365491720e-02  2.2268646173992494e-02  4.9792379275901155e-09  5.7503328241660032e-03  8.4897561618566021e-03  1.7175054649507093e-02  -3.8125210239629225e-03  -3.4905784705249854e-01  -2.1126833002660245e-01  9.1457102687142328e-03  1.5311288126199326e-02  4.6772123997110882e-01  -3.4483419654405432e-03  2.1425897246587031e-02  1.5606535448181041e-01  2.1125662374631905e-02  -1.9534966013597890e-01  -2.1105815145837564e-01  4.9680085352893333e-01  -2.0131302162553856e-02  6.8587694502216931e-03  1.4454102897670020e-02  -5.7970817341005776e-04  2.0286129926613275e-01  1.8395581081815361e-02  -2.0103820793486649e-01  -2.0651117267549374e-01  1.7693733924575523e-02  -2.2155727309945447e-01  5.1055712264778041e-03  -1.4403312418702519e-01  5.0710831510374582e-03  2.0559508845794178e-02  -1.5534135095641122e-01  -6.0549611348748311e-02  -2.1457046246460101e-01  2.1946789534486910e-01  9.0232278665557497e-01  7.2483454335220598e-01  -1.7657924704751274e-01  1.2877006273226042e-02  2.6721919661794470e-02  2.3886817441905041e-02  1.0348958821757572e-02  1.2570241916478235e-02  -1.2501404118647280e-02  2.1809035623744956e-02  1.7929481060406982e-02  -1.8207330173876984e-01  1.3745621904650673e-02  1.4338621462320801e-02  -1.9061492809536545e-02  4.1549882092496504e-01  4.3984331609933469e-01  2.8819180164592340e-02  2.2666977994494859e-02  -3.8151033750424453e-02  1.6453066999665394e-02  1.6535695794105777e-02  1.7123256111466711e-02  2.4360066759197965e-02  1.0665524236774618e-02  1.1176380443729607e-02  -1.1278029124850748e-01  -1.1305553699160001e-01  -5.6337154878669568e-02  -1.3217145642867245e-01  -1.0266673137864184e-01  2.0225386468142897e-01  4.4396174658970627e-01  -2.1110431343420179e-03  -2.3586764960710736e-02  -1.7104249401124372e-01  1.5418703234679223e-02  8.8297824104404364e-03  1.8656408012945262e-02  -3.3134243562854210e-01  -1.0487270104589611e-03  5.1898626975601971e-03  6.2172208295845667e-03  -2.0972498753734087e-01  -2.4163396919016883e-01  -1.4951855629510005e-01  6.0587738246242256e-03  7.0171269658039883e-03  1.0044803528722723e-02  -2.8584879201199306e-03  1.5282434233877771e-02  3.5401798157582622e-03  8.2553119422378220e-03  6.0300821713661287e-03  1.6414748514291565e-03  1.5520573232614738e-02  9.8902661796705198e-03  -4.9581873974443628e-02  -1.7841476705025333e-03  -3.4792247575212565e-01  -7.3851909517973477e-02  3.9738743724576251e-03  -1.4570927074162450e-02  -1.0345758905747990e-01  1.5555241845620137e-02  -1.6258642215103486e-01  -7.9457895817525812e-02  -7.5343831651853224e-03  -1.4225687487368119e-01  -1.7809742983728585e-01  8.0609739290364735e-03  -3.4580191627385509e-01  -3.6715204773304938e-01  1.8154499244875673e-02  3.4800525243982743e-02  9.0983238831069159e-03  8.8402392861593546e-03  -4.0244095574343573e-02  2.0129586286018980e-03  7.0062044575142021e-03  2.2873510213080837e-02  1.5963921206118507e-02  4.7120040415723197e-01  -7.1185437021801190e-02  -1.8372616948468365e-01  3.3102775136864280e-03  -5.7381537455525572e-02  -1.2464074394604228e-01  6.9737802252564903e-03  -2.4322646576223719e-01  -1.0181191832822599e-03  -1.3566894523107784e-01  2.9245837670560798e-02  1.6774609223040568e-02  -1.2733952228612833e-01  -2.4996366018453392e-01  1.0309371709847795e-02  6.4282021509497458e-03  1.6554138736321057e-08  3.0741183600235020e-02  -2.5978166623217840e-03  4.6326174610250798e-01  6.7725518143152983e-03  1.1219360577359943e+00  9.8122040278850672e-03  1.0285617099293824e-02  3.5873846817160271e-02  2.2048301878044366e-03  7.0366034477113894e-03  2.5645242323068806e-02  3.0371634588966266e-02  2.6934940327711494e-02  1.4118911974005612e-02  2.0568647711462256e-02  -2.4404307013172755e-02  -1.6175571295604544e-02  7.0136958439881592e-03  9.4984037204429370e-03  1.3506657466072245e-02  1.7712679836825968e-02  1.3423646493323648e-02  -9.5969562918932036e-02  1.6577607414072579e-02  1.7530604455212286e-02  -1.3037243372367903e-02  -8.9262143951158394e-04  -3.6889868620987885e-02  1.3009908755145424e-02  4.6437420256596224e-01  -5.6829436208251843e-02  4.6467972781766195e-04  -6.5044898548644488e-03  2.3538066598744770e-01  3.2678580770069671e-01  1.4814918849928408e-08  1.0460970034640897e-01  3.4282031039552097e-01  2.9328834271849739e-02  1.8022633231938062e-02  1.1071458447699287e-02  -1.0993175245481746e-01  6.7552262068433955e-01  -7.0230795177717372e-09  -9.2601182464746724e-09  7.0177766477965287e-01  1.0478198221655976e-02  -1.3447061239789121e-01  3.2842392056523638e-02  4.0685298428822636e-01  -5.6045941006036045e-03  2.6396731007378972e-02  2.1277818149586163e-02  2.3138325192024575e-02  -9.5084648570917443e-03  1.7105119836056708e-02  -1.8830143089776682e-01  8.1266392498374040e-03  2.1312596020074938e-02  8.5023779955467373e-03  6.4501165191687249e-01  -1.8873599830829779e-01  6.7119092620978682e-01  -3.0527847530458370e-04  3.8059740019937260e-01  -5.8682126076591908e-02  4.8030981690328203e-03  -2.6894055294298530e-01  -1.7154353911926920e-02  1.8627360147526098e-02  -3.2713730881155667e-01  -1.9883248807821896e-01  1.8978482513931764e-03  9.0930223404646956e-03  -2.1323682339433866e-01  -1.8455465045782574e-01  -1.9936704132390159e-01  -2.2300971969241154e-01  -9.8019045696990090e-02  1.1380223454166366e-02  -3.5076200617783693e-01  1.2770443604340357e-02  1.5017616222204801e-02  8.9275965576800995e-03  1.8200562871283341e-02  -1.2547566674689573e-01  5.4152576807856385e-03  -1.2958661571208735e-01  -1.6663212947608250e-01  -1.2122693279813503e-01  1.6597429207268963e-02  -2.1721877624510869e-01  -1.8949883401448395e-01  1.8008254185942853e-04  -2.8948762446373449e-01  -2.3423787314362060e-01  -2.0924750690096390e-03  8.7427990019763556e-03  1.9055964418558079e-02  -4.6269519491900231e-02  1.9805775921599073e-02  -3.4087277127276844e-01  -3.5237558436463545e-01  1.5183411779179503e-02  -3.5744087941709340e-01  9.0975280780271950e-01  1.2542301188679685e-03  8.4495380946080489e-01  1.7532228045242633e-02  -3.5715146223850355e-03  -3.4406717478734680e-02  5.1148451407210015e-03  1.6171414509889681e-02  1.9402944411443437e-02  -2.2835053061977147e-02  5.1574416570240650e-03  2.3691404551220041e-02  -1.5700137321185675e-01  -2.8440677557655292e-01  1.6586663267662699e-02  -7.0514433614757066e-02  1.8706233999747357e-02  1.4453095718971916e-02  1.1251768155378721e-02  1.3877572892807312e-02  1.5116986333857307e-02  -1.9849528527987167e-01  -1.9238051669943287e-01  3.1951591776065803e-02  1.6507903356282091e-02  1.5522649523984394e-02  4.6064522636201592e-03  6.3461449744668021e-03  4.2517472783352572e-01  -2.9811823834586304e-01  -3.2791000619984606e-02  2.0486789708253000e-02  1.5463461431937255e-02  1.8692143092559906e-02  -7.8328894320639400e-02  1.2444419682718059e-02  1.6604006537356938e-02  -5.4336146993044163e-02  2.2119096779014007e-02  6.5762881535534144e-03  -1.4244477353461912e-03  2.9889180234967994e-01  1.4751530581928579e-02  -2.0041579985613822e-01  -1.9780155701623955e-01  -1.5049815850304659e-02  2.8736042872399026e-01  1.0133351329917172e-02  -2.6067572774663861e-02  1.2286909168506985e-02  -2.4762807909854831e-01  2.6774647100630223e-03  1.0240224340802479e-02  1.3995027449610335e-02  3.0638674659907911e-02  -2.6657517999815628e-01  -1.5882334554736693e-01  4.6040983289335853e-03  -7.6420189578557422e-03  1.7494511043362439e-02  3.5152068143340372e-03  2.1219085188321794e-02  4.0826721053776509e-03  4.1997812081035579e-01  -2.8453778894443390e-03  -1.4259214512385579e-01  -2.0838592307306752e-01  -1.2145383162571963e-01  7.6885233654186060e-03  -3.3415058801877562e-01  1.4018353565891331e-02  -7.0613491683991142e-02  1.7113267577337964e-02  1.5120548149779129e-02  1.1531149531636036e-02  -2.3750170496955825e-02  8.6633849893933551e-03  1.5841946402096317e-02  1.7330730320495608e-02  1.8408799505463456e-02  4.5559856849654112e-01  4.2802254094891717e-01  1.9939241941195611e-02  2.1218348985291922e-02  -7.1022478775287390e-02  -6.9729952221573452e-02  -1.1408876940571900e-02  -9.9624276029411703e-03  5.6011847308660623e-01  -2.3056368350523440e-01  6.9664434927255869e-01  -1.7218593188354511e-01  1.4677678741246753e-02  -9.7407400751467768e-02  -3.7535216770190609e-02  -2.5345113953982312e-01  6.5434361990193805e-03  7.6597390087922379e-01  -1.8200189392604274e-01  7.8119967091904875e-03  2.5725430093006887e-02  2.5759045874036313e-01  3.1070197975644222e-02  6.0059898323428451e-01  1.1148668129549582e-02  -1.2340438496220826e-01  -5.0156383709687785e-03  6.9231699017771276e-03  1.6333199774672100e-02  2.5168225750921376e-02  2.6463653847524034e-02  2.5565692433191518e-02  -6.5756339322156953e-03  1.6455312933512673e-02  2.6632269148745003e-02  -1.9116411015553522e-01  3.1117657841552042e-03  -2.1523135016148162e-01  -1.5821247598447499e-01  4.4905981598572361e-03  1.8197629760030753e-02  5.3249903209051630e-01  2.8913801928648918e-02  1.4971438277892291e-02  2.3699956058037075e-01  4.3915499351329340e-01  -3.3839331109721218e-02  5.0154689491955373e-01  2.2160755249595876e-02  -6.5990050510713202e-02  1.3175684238044945e-02  -2.0007151924611652e-01  3.3225531503453809e-02  1.6529621669721432e-02  -1.7152389248481473e-01  -5.8689684308784053e-02  1.2166169150126948e-02  1.0479576239312767e-02  2.6760074082017599e-02  1.3321337645436972e-02  -4.4476634111149937e-02  2.3720651302002005e-03  -4.7260299843407561e-03  -2.9019653402317567e-03  9.5170115503848372e-03  -3.3996301511231358e-01  2.2612056388749555e-02  -2.6143310524175218e-03  4.1234527380783481e-03  8.8628299593119988e-03  5.5749312187064358e-03  1.5282393004786420e-02  1.1361679673619314e-02  1.7492760677099598e-02  8.1043711681018007e-03  -7.3304720218763796e-04  -2.0184866591154038e-01  -1.9562019448457066e-01  1.0103997678344084e-01  -7.6314544846579527e-02  -1.1111127462400357e-01  -1.9832299724577618e-01  -1.7307417801316094e-01  1.3664318126343824e+00  -2.0733792188150014e-02  1.5934464737316092e-01  5.8284054409892278e-03  2.0655163086406914e-03  -2.0434812645576577e-03  2.6035628219465649e-03  6.7418626368637600e-03  9.8402763233709101e-03  1.8589232954106187e-02  9.6774806934900558e-03  4.4173850764110244e-03  -3.2346099342092582e-01  -1.9778108369885999e-01  1.4352956128057776e-02  -3.3592086505451468e-01  -2.5884476083934210e-01  1.3405397021380779e-02  -2.8887375639148455e-01  -3.4661930732464641e-01  1.5124863553513059e-02  1.0540488475047584e-02  1.8668698365733427e-03  6.2905043860984724e-03  1.8430959218647312e-02  4.9537227267196277e-05  -2.1906149539225322e-01  -1.9135319561209589e-04  1.1376707399055485e-02  2.0942189303166419e-02  -3.1471844081024120e-03  2.5244076316253940e-02  3.8616103910450337e-03  8.8293230118906378e-03  2.0901831730391309e-02  3.0160447203683830e-02  2.3510285847074476e-03  -1.3225151865533514e-02  1.4882743208700762e-02  -1.2757280670270721e-01  -4.3245339583079190e-02  -5.1796796044168668e-02  1.6722502495107636e-02  -8.3998707111748051e-03  5.4139500282625545e-03  -1.5811045129574878e-02  -1.8713631499734748e-01  -1.6640207399318813e-01  -1.4371770895401975e-01  3.9247759035529489e-01  1.1355671603379597e-01  -9.6668547185409515e-02  -1.8580569999598021e-01  -1.8836955475315506e-01  -9.8872556603601239e-02  -4.9449377304895917e-02  -1.1319285733985794e-01  -1.5522895864504099e-01  -1.6264466797779620e-01  5.6273511932013309e-03  1.6196724396231765e-02  9.9764772176480498e-03  1.9949137690719116e-02  8.9609536370060389e-03  1.7470159386536122e-02  -2.4301395015909815e-02  4.3586585546721499e-03  -1.5129402667579697e-01  5.1791645816983657e-03  7.4287252765008636e-03  1.8456413787985994e-02  1.5999759013420916e-02  1.7489562338490132e-02  7.1948751654155553e-03  -8.4449758526112820e-02  -5.4302680591181124e-02  -3.1236542179755900e-01  -3.3410379639419308e-01  -1.5109897905742894e-01  -1.8233838974498992e-03  2.4894205417000689e-03  2.1741934849783794e-05  1.4365970790451620e-02  3.9539299755537610e-01  9.3830577425894519e-03  3.4276995533510039e-02  3.3098303235954467e-02  -9.8406437302760316e-02  1.3838039091723426e-02  2.9047473499871113e-01  2.3929643014461422e-02  2.0183175919109685e-02  -5.2603305649163708e-04  1.6280612891443620e-02  -1.1556625273802276e-03  -1.3851355419423322e-01  -5.1878039756733977e-04  -6.5403304615940280e-02  1.8106044457092220e-02  9.4326519831504137e-03  4.3394599922325057e-03  -1.6327623023652407e-01  1.7691701239791472e-02  3.2004346817562673e-02  7.3995891627981991e-01  -1.8463631437854697e-01  -1.1751416719254865e-02  1.5186088375343661e-02  -2.6343977269836533e-01  -6.7417566308926286e-02  9.3510827046279690e-03  1.0309151045480438e-02  2.1222786701792454e-02  8.0360596797349260e-01  1.9773680401330446e-03  1.3032157480424009e-02  8.6461576486027286e-03  6.9159669017225473e-03  3.7073980009266910e-01  1.9527313259026530e-02  3.3185461538541133e-01  -4.5183612630482768e-02  1.9604496312095144e-02  -3.5445406775886634e-01  -3.6140916931366462e-01  3.9174291160439844e-03  -3.5094624627096260e-01  -3.0975966299413453e-02  6.6388528974968952e-03  7.1187711646350602e-03  1.2384260080458063e-02  7.2478787273932855e-03  2.2689136133417259e-03  -8.9004373455129075e-04  -1.2027895173747408e-04  -2.2954356613085692e-02  1.0878442025382330e-02  -1.9382733188005144e-01  1.1702612816158267e-02  1.8127520310255413e-02  1.5148219518512810e-02  -8.4139010010575735e-02  -1.1582981633399661e-01  -9.1356410801914464e-02  -6.1846883966273726e-02  1.8859453229442352e-02  3.1054554375166077e-02  -2.5617670165884326e-01  -1.7098910559649264e-01  -1.9645339615864046e-01  2.7309568042112958e-02  5.8487833303270287e-01  5.4438663099670714e-03  -2.5872992230504196e-03  -1.0515927793040454e-01  2.7762893403647865e-02  -2.3328283660703622e-01  1.2497454754829319e-02  -3.4440973766316663e-01  -2.5977783387910710e-03  -1.4709899813620717e-01  -1.7619680660969322e-01  -2.0587738674476469e-01  1.6809285621477488e-02  1.5632118648184836e-02  1.2895579738576812e-02  5.0274992810706524e-03  8.8346926815119822e-03  -9.7933980076922986e-02  1.1253449656880528e+00  -3.8117492732240321e-03  -2.1514873162878558e-02  -3.2108234826647569e-01  9.0320377877064643e-05  4.6616266688788970e-03  1.4783932019119357e-02  1.2580513823811940e-02  -7.7023855182948839e-07  7.8549935564623044e-03  7.2470907550160066e-03  1.2074220806315915e-02  1.7685910605455615e-02  -3.6988981031437058e-02  -5.2368699785734517e-02  4.5867574115567206e-01  4.5693435329328552e-01  8.2754034205572286e-03  -2.7266247758589690e-01  1.6208097185852813e-02  -8.7342449657237479e-03  1.7144064190345819e-02  -1.0474343131502488e-02  -3.2087787013310980e-03  1.8837704428965912e-02  6.0529109724303676e-01  -4.7402645516792963e-02  3.3919976761166440e-02  7.2957621849461002e-02  2.4674488538163594e-01  -1.1962804574054405e-01  5.2558474459308236e-03  1.8292256415002016e-03  -2.4247276552458333e-01  -2.1969970990962923e-01  -3.4645776681501617e-01  1.8169560208603847e-02  8.4216981765637255e-03  -2.6045685753383208e-01  4.4134532266747539e-01  7.5346448499552920e-01  9.6475253468754248e-03  -1.4352141580034042e-01  1.6857452312310735e-02  4.5845041889172886e-03  1.7248131922971643e-02  1.5116867536371328e-02  -2.3744836705368109e-08  -2.0922036837512958e-01  1.8084980529547854e-02  4.1877629986930443e-03  -2.1534861100123315e-01  -2.0857157848867025e-01  1.6735069900937816e-02  -1.3698103848068435e-01  3.9207043661658669e-01  3.7693252613758332e-01  1.7602954838437806e-02  1.4729466613695842e-02  2.4937141499451809e-02  2.9748537219811987e-02  2.4936737999020783e-02  1.7540243328894211e-02  1.3304501462173598e-02  -1.7861308624641603e-01  1.0725266012245036e-02  2.2549286819349840e-02  -5.3556891487358442e-03  -1.1346340630455835e-02  -8.2639516155447623e-02  -2.2105615258962355e-01  1.3063280163459036e-02  -1.2459349193741223e-01  4.6305611268664337e-02  4.9792379275901155e-09  1.9243738392077684e-03  -1.8497475496720532e-03  -1.0749326053179223e-03  -1.4816170081012178e-01  1.4397799372341652e-02  -1.2919610920499621e-02  4.2522459879100021e-03  1.2202261355720284e-02  -3.6491562748617169e-03  -1.2580739682760926e-02  1.9001299929668723e-02  -1.1413179727206858e-02  -1.2567592286815690e-02  -1.7420834664692963e-02  7.7893643847585818e-03  2.2276671980190670e-02  -3.5635688060190726e-02  3.9629839124244698e-01  -1.7164132803306555e-02  1.8771818224108741e-03  -6.0713802050882261e-02  1.0638682333949935e-02  2.7774151883408478e-03  3.1416408115559498e-03  -2.0208893797443062e-01  1.5861342997137942e-02  1.7876464333141783e-02  1.5353949569703698e-02  -2.2056186491161753e-01  2.3831654379442544e-02  1.4800756717306110e-02  1.4892397431795634e-02  -1.8643187865501429e-01  -1.9916898932080959e-01  1.2941684861452255e-02  -2.2095222222820979e-01  -2.5401157909967181e-01  -2.4481045059132170e-01  7.2502523667056177e-03  -1.3570400751466980e-03  1.3676542419745984e-02  -4.2025887104601040e-01  5.7558259731480040e-03  -1.3273789539299902e-01  2.3764763709354701e-02  3.2252068900056530e-01  -3.7739785941178536e-02  -1.0840749451253521e-02  -1.1195786717620565e-01  -2.3744836705368109e-08  1.0802802391377120e+00  8.8087803202823078e-01  -2.8883378480717870e-02  -5.3061263191438189e-02  -1.3304473444771095e-01  3.1889985067043873e-02  2.6593332102972021e-02  -1.2473571470270223e-01  1.2399743007533727e-02  -1.8543807307862997e-01  5.2495356667358739e-01  4.7043723320901792e-01  4.7497751493341422e-01  4.1770609191117761e-03  8.1391093111191255e-03  2.3817671668255384e-02  3.2386987707767871e-02  2.5023106660627244e-02  -8.7507886935103967e-04  5.3109987373474299e-01  3.0429277693423511e-03  -3.7513729148111263e-01  1.6133162220628376e-02  4.9276103259840841e-03  1.8808303919833847e-04  1.2332641990022045e-02  1.1397971859773212e-02  -1.9318879982663681e-01  1.1366632785441