<?xml version="1.0"?>
<VTKFile type="UnstructuredGrid"  version="0.1"  >
<UnstructuredGrid>
<Piece  NumberOfPoints="2426" NumberOfCells="4534">
<Points>
<DataArray  type="Float64"  NumberOfComponents="3"  format="ascii">0 0.41 0  0 0 0  2.2 0 0  2.2 0.41 0  0.2404508497187474 0.2293892626146237 0  0.25 0.2 0  0.2404508497187474 0.1706107373853764 0  0.2154508497187474 0.1524471741852423 0  0.1845491502812526 0.1524471741852423 0  0.1595491502812526 0.1706107373853764 0  0.15 0.2 0  0.1595491502812526 0.2293892626146237 0  0.1845491502812527 0.2475528258147577 0  0.2154508497187474 0.2475528258147577 0  0.5404508497187474 0.2293892626146237 0  0.55 0.2 0  0.5404508497187474 0.1706107373853764 0  0.5154508497187473 0.1524471741852423 0  0.4845491502812526 0.1524471741852423 0  0.4595491502812526 0.1706107373853764 0  0.45 0.2 0  0.4595491502812526 0.2293892626146237 0  0.4845491502812526 0.2475528258147577 0  0.5154508497187473 0.2475528258147577 0  1.1 0 0  0 0.205 0  1.1 0.41 0  0.55 0 0  0.55 0.41 0  0.275 0 0  0.275 0.41 0  1.65 0.41 0  1.65 0 0  1.375 0 0  1.375 0.41 0  1.925 0 0  1.925 0.41 0  0.8250000000000001 0.41 0  0.8250000000000001 0 0  1.5125 0.205 0  1.7875 0.205 0  0.9625000000000001 0.205 0  1.2375 0.205 0  2.2 0.205 0  0.7560964076246335 0.2151713709677419 0  1.99375 0.2152743902439024 0  2.0625 0 0  0.6875 0 0  2.0625 0.41 0  2.2 0.3075 0  0.6875 0.41 0  1.7875 0.41 0  1.375 0.1486128048780488 0  1.5125 0 0  1.7875 0 0  1.5125 0.41 0  0.9625000000000001 0 0  0.9625000000000001 0.41 0  0.4125 0 0  0.1375 0 0  0.1375 0.41 0  0.4125 0.41 0  1.2375 0 0  1.1 0.1486128048780487 0  1.2375 0.41 0  1.65 0.1486128048780487 0  1.126715909090909 0.2793064024390244 0  1.676715909090909 0.2793064024390244 0  1.348284090909091 0.2793064024390244 0  0.34375 0.3032389320646208 0  1.894702181800738 0.1282910975492754 0  2.092797818199262 0.1282910975492754 0  1.85625 0.3075 0  0.8630851210521902 0.286932093388664 0  0.89375 0.1025 0  0.35 0.1090282786671641 0  0 0.3075 0  0 0.1025 0  0.6526217841291382 0.288229645480046 0  0.7562500000000001 0.09660248895515888 0  0.6568633732316684 0.1557582854763441 0  2.099172119769978 0.25625 0  1.002356446954348 0.1010393851523063 0  1.99375 0.08395950269330846 0  1.459960956013612 0.3075 0  1.569025960719943 0.2986889805672169 0  1.03125 0.3278689922742084 0  0.75625 0.3247156761655783 0  1.959375 0.3126371951219512 0  1.749222215368287 0.1025 0  1.275777784631713 0.1025 0  2.2 0.1025 0  1.225938124459196 0.3075 0  1.550777784631713 0.1025 0  1.44375 0.07430640243902442 0  1.16875 0.07430640243902437 0  0.3528655045338512 0.2063263890916129 0  0.5890337614812103 0.08775733857679162 0  0.8504912436891263 0.190072835691683 0  1.899250267340833 0.2229966846119207 0  0.1020898364287272 0.3140258291809757 0  1.766482954545455 0.2934032012195123 0  1.051658316544432 0.2265720188842194 0  0.2 0.3400647632937836 0  1.421109702350723 0.2261157654379721 0  0.4812500000000001 0.41 0  0.4324401666997539 0.3216425986889796 0  0.098916018031319 0.09171660955420841 0  0.9508742791313441 0.2921736960864468 0  2.13125 0 0  2.118919042110979 0.3422084711244843 0  1.30625 0.41 0  0.20625 0 0  1.597888256393107 0.2173787389261347 0  0.4812500000000001 0 0  0.4324082967851086 0.08384041677422771 0  1.829299675393195 0.07400700849299596 0  0.568219932524165 0.3212274660843853 0  1.71875 0.41 0  0.268005226542646 0.08512186835670006 0  1.16875 0.41 0  2.038220665644273 0.332420740103091 0  0.6678017527842831 0.07701763866051195 0  0.89375 0.41 0  0.5111435174287687 0.07335351331957608 0  0.176193934632343 0.0734896648625108 0  0.07390688010811153 0.1697064032433452 0  0.05452951551825875 0.25625 0  0.61875 0.41 0  1.452769549894695 0.1548122580621249 0  1.369219062229598 0.07430640243902442 0  1.30625 0 0  1.720943423819132 0.1714577452753128 0  1.157188124459196 0.205 0  1.094219062229598 0.07430640243902437 0  1.304056576180868 0.1714577452753128 0  1.67579304192913 0.07430640243902437 0  0.2672907219039591 0.3037570723459566 0  1.209670467133757 0.1362100266964769 0  1.58125 0 0  1.03125 0 0  0.06875000000000001 0.41 0  0 0.35875 0  1.58125 0.41 0  1.631724228912893 0.3381867502687533 0  0.8240147050827157 0.1225233169495944 0  1.825608881788174 0.14499488549201 0  1.85625 0 0  1.44375 0 0  1.44375 0.41 0  1.85625 0.41 0  2.13125 0.41 0  0.7562500000000001 0.41 0  0.7562500000000001 0 0  0.89375 0 0  0.34375 0 0  0.34375 0.41 0  0.20625 0.41 0  0.06875000000000001 0 0  1.16875 0 0  1.03125 0.41 0  0.61875 0 0  1.71875 0 0  1.99375 0 0  1.99375 0.41 0  0.3972301426712326 0.2593842555611471 0  1.340625 0.3489494290853124 0  1.134375 0.3489494290853123 0  1.700180620188976 0.3438659752031281 0  0.5003922072260507 0.341765274319271 0  0.6212513815748759 0.2209216137134851 0  0.6885607720119526 0.215393731583638 0  1.033412357328477 0.1612902025713047 0  2.135782184673599 0.07126652247502523 0  1.668441847249787 0.2129203728327609 0  1.295782514339747 0.2378437748815763 0  1.409375 0.3520314716057996 0  2.129248544730567 0.1906135162504124 0  2.060771381434487 0.1989445750470348 0  2.013252586573865 0.1496169464686054 0  1.942766402200229 0.1734448904596831 0  1.895522487186454 0.06076163953489683 0  2.069553871656643 0.06605731020975725 0  0.9281250000000001 0.3539050257418612 0  1.274680914880868 0.3520219391081363 0  0.3030138498135347 0.2488370856812789 0  0.8223773249563684 0.341761430177996 0  0.9018164060227267 0.2326477848736739 0  0.8143027982392851 0.2440265179987191 0  0.7225087161029304 0.2699907246386231 0  1.614713220494657 0.09473434380863296 0  0.378125 0.3566194660323104 0  0.309375 0.3566194660323104 0  1.72990325744076 0.2380068107952482 0  0.6915936999299305 0.3429472631234433 0  0.6268087624932918 0.3466455500035671 0  1.356580098625191 0.2120393231351682 0  0.3060160055995138 0.1590148921620778 0  0.3954648733249218 0.156380553890791 0  2.034370752044885 0.2668681600792073 0  1.51768709249349 0.3426260931494756 0  1.561883724969884 0.1650446847858835 0  1.197344062229598 0.2523725417393646 0  0.9281250000000001 0.05124999999999999 0  1.804085235518364 0.3468178408964637 0  1.817887819205233 0.2589243285818559 0  0.9107805776841645 0.1653834539923287 0  1.905897727272727 0.3485060975609756 0  0 0.05125 0  0.844212276491354 0.0614201194265309 0  0.378125 0.05244637078450034 0  1.008571329007178 0.2705955969954818 0  0.7724048032149464 0.1559079561351474 0  0.7203054377831548 0.04941826955193545 0  1.192836486056382 0.3562350748565544 0  0.5967108020713719 0.1479294686523888 0  1.28257088594801 0.2944411014911587 0  0.7041890234548132 0.1222025174424443 0  1.474860187679412 0.2504218616229368 0  1.406767003493824 0.2829282258560709 0  0.3201325899091991 0.05890121548989159 0  0.5979220912872258 0.2727591995766724 0  1.845656689180403 0.1998310418452388 0  2.144958525570388 0.2909790873294231 0  2.2 0.15375 0  1.57794966442982 0.3540357145964566 0  0.9483181579620558 0.1214693369582054 0  0.0496154796471391 0.333125 0  1.508991196088596 0.1421783375065625 0  0.09776612425612034 0.2204896805326566 0  1.50436820029908 0.06143401634903343 0  1.223857000523521 0.0823554862453532 0  0.2531953886959507 0.3582003209055908 0  1.153316824384777 0.1289850171317837 0  2.148922302309752 0.1258841779285271 0  1.621993280276081 0.2841214267927899 0  1.550118654119087 0.2461998729100966 0  1.327182649291491 0.1216967252533594 0  1.753125 0.04556020050186112 0  1.271875 0.04556020050186116 0  0.9824282234771738 0.05051969257615314 0  1.039510847866381 0.05683351822678641 0  1.94956388244759 0.1180512551534177 0  1.949997712993411 0.04965831614304109 0  1.771961817615021 0.1530278789497521 0  1.909246823951428 0.2812757146784527 0  1.101974016627944 0.2038045618205013 0  0.7906250000000001 0.0444674049654372 0  1.948575539857022 0.2445328248721197 0  1.697271520964565 0.1233917627620729 0  1.065625 0.3689344961371042 0  1.085849084308977 0.3170853572226867 0  0.9840604787624379 0.3582077516409966 0  1.577403511714593 0.05463601888079143 0  0.05622663515370135 0.05493816910862376 0  0.8762396958822678 0.3392249777398821 0  1.751571320346033 0.3651102912045228 0  1.055327852410105 0.111864799513911 0  0.1583785085108421 0.2994699345738728 0  0.1455283439499995 0.3542795598723423 0  2.2 0.35875 0  0.225705107073232 0.05084786997482401 0  0.1455852234589313 0.1166494778469164 0  1.466879772203159 0.3611261772912453 0  1.990280163552011 0.3564754268533217 0  1.17471064520912 0.2990917256188288 0  0.7221925551074015 0.1739659241003985 0  0 0.25625 0  2.2 0.25625 0  2.2 0.05125 0  0 0.15375 0  1.853978576207987 0.35875 0  0.21965520498276 0.1015543880164422 0  1.515638456102889 0.2882700110184686 0  0.09048297387599738 0.3637717362208066 0  2.150453692751374 0.2387066338105111 0  1.323782677156475 0.04897634338873398 0  1.409375 0.03715320121951221 0  1.406484531114799 0.1087852750766809 0  1.134375 0.03715320121951218 0  1.627401732573545 0.04552157221025036 0  0.446875 0.3713289093361426 0  2.045405893604797 0.1105340662939892 0  1.255408269734577 0.1577307500159216 0  2.028125 0.03707597992059326 0  0.04420832937638274 0.128125 0  0.5817551710628505 0.3702615006034757 0  0.1197849154434487 0.2663398672460083 0  1.248258025468107 0.2565907092181813 0  0.1300647302703173 0.0508462728378621 0  0.7738123537510222 0.2761231499240648 0  1.203125 0.0366132337404304 0  0.5444207041612499 0.111205399508622 0  0.8016457771828226 0.1964238426015905 0  2.072662025974815 0.2975086504196739 0  0.4019040438866802 0.2103993403217561 0  0.4677372330974851 0.04827477407630658 0  0.8677218578847617 0.1432970430140788 0  1.058011122005847 0.2758866204059919 0  0.4429405887974043 0.2746184809910084 0  0.5843750000000001 0.03726989681835222 0  0.6318596133730142 0.1128692182767254 0  0.4862628454464408 0.2957029785303028 0  0.7805186758662764 0.3673578380827891 0  1.887722846421017 0.1760882698830035 0  0.3498893058880703 0.256189258793856 0  1.472640588990488 0.1118278026240017 0  1.865937103925594 0.2604137786483804 0
[...]
<PointData  Scalars="f_43"> 
<DataArray  type="Float64"  Name="f_43"  format="ascii">4.4237105298909740e-01  4.7284874739239602e-01  1.2023307253025162e-09  7.5155761069471936e-10  -3.4201254834712980e-01  -3.0581763053762545e-01  -3.2864169300032131e-01  -4.9610390118131414e-01  -9.1348699284831825e-01  8.8229224514639237e-01  2.0162441319652005e+00  4.1994530187878065e-01  -1.1386157744858973e+00  -4.8907605367902357e-01  -2.5787939893304113e-01  -2.3539768603244060e-01  -2.7282376668088681e-01  -4.4211427484238081e-01  -1.1145193877069323e-01  -8.8871613243980255e-02  -2.7303424329794457e-01  -1.2113647079035172e-01  -5.3050496325490658e-02  -4.9839676015854939e-01  8.8320914304386954e-03  7.8446695683470935e-01  4.1051621251957235e-03  -1.8366925784006941e-01  -1.7760416636754880e-01  1.9807540912237184e-02  4.0765300722454018e-02  2.8759990448242116e-02  3.1348361150149141e-02  2.7877998476403335e-02  3.4324879708868584e-02  1.9005132317353120e-02  1.6269409280080242e-02  -7.3051509413372739e-02  -6.4940071595776000e-02  3.1139799394935521e-02  2.5374151168567827e-02  3.4551953103571363e-02  2.8726570015763689e-02  1.5973462616965122e-09  -4.7862929573657821e-02  9.2686743403899638e-03  1.1053683784415928e-02  -1.3106359361262918e-01  7.6110787980462483e-03  1.0282162561719333e-09  -1.3075072882108496e-01  2.8909986223098351e-02  2.8123532142057574e-02  3.5146828086059373e-02  2.3614490603520562e-02  2.9641592967210563e-02  -2.4466449097751260e-02  -2.2128122099534527e-02  -1.7430986213565874e-01  3.8959400855328186e-01  3.6713965227110673e-01  -1.5635621068364358e-01  2.7896258721230607e-02  2.7565379222004433e-02  1.7289985854362568e-02  3.1571488308523632e-02  1.5435673292568638e-02  2.9666417821988436e-02  3.4573173916992203e-02  -2.3545692147117861e-01  2.0009260133468917e-02  8.8799501992285028e-03  2.3842315845125878e-02  -1.4106067100873664e-02  -1.5770601515840220e-02  -2.7654194159815498e-01  5.3895878621751370e-01  5.7278667678827844e-01  -1.7068937486537106e-01  -7.6824753811909549e-02  -1.8447999459577585e-01  6.6837431376641637e-03  -2.3396707736496936e-03  1.5377028265919961e-02  3.3903942655751987e-02  2.6200447421609811e-02  2.0572169056093759e-03  -9.0234034784841474e-02  1.2161283332426989e-02  2.4504158011160508e-02  2.9015232556356210e-02  -9.7310341250105955e-10  1.7184870494051766e-02  3.5689145620189600e-02  3.0465004378755992e-02  2.4295430466524673e-02  -3.3466844333271545e-01  -2.0194992039986179e-01  2.3608765149077424e-02  1.8375784440419835e-02  4.8241700521656855e-01  3.0310266572305362e-02  2.8706073119445348e-02  1.7083736901381455e-01  3.5116604136314324e-02  -1.7871419358703861e-01  -1.9432313238052643e-01  5.1138174581403728e-01  3.6844798251600788e-03  5.6501811943269684e-03  5.5233444153499943e-03  2.7585421049615720e-02  2.1731378689359598e-01  2.7767542719242800e-02  -1.8898995196206808e-01  -1.9426444839139131e-01  2.1741248841118350e-02  -2.0253434428631048e-01  3.0716950484450067e-02  -1.2949703382759203e-01  9.4571594241149512e-03  7.6305033831477864e-03  -1.4333359051682126e-01  -4.6480898560953186e-02  -2.0392165543308560e-01  2.3398773497200989e-01  9.1694572195058421e-01  7.3949976813850327e-01  -1.5885022881602115e-01  3.2051379275706976e-02  2.6391978530566768e-02  2.7608218018060300e-02  2.6308462989887375e-02  2.6144729293474493e-02  9.3287107361729616e-03  2.8970379103338804e-02  2.9685450685014089e-02  -1.6742640152064051e-01  3.0184583104304077e-02  3.5006871206030389e-02  -8.4002873943363667e-03  4.3020403548076697e-01  4.5454410365305198e-01  2.7158024387933456e-02  2.6836753070387558e-02  -1.9658123538533391e-02  2.1501055924310564e-02  2.1481122016370247e-02  3.1447216773517868e-02  3.4129514077064542e-02  2.3316959334977169e-02  4.6179468819542158e-03  -1.0111437452015500e-01  -9.6181636285494837e-02  -4.1380748940906764e-02  -1.1818054569346746e-01  -8.7524408986175681e-02  2.1705303842996945e-01  4.5853154169967841e-01  2.2435435104685101e-02  -4.7472003477562136e-03  -1.6065099775944941e-01  2.6913175832308747e-02  1.5390182334785091e-02  1.0636758394018909e-02  -3.1760636714652357e-01  3.2470470676461013e-02  7.2378245309111452e-03  3.0577607279495839e-02  -1.9206094160830117e-01  -2.2069874897936695e-01  -1.3623244735938617e-01  2.4848283742019604e-02  5.4093345760572410e-03  2.9434689813428158e-02  3.3145763120605166e-02  3.6119676904983300e-02  5.0525663993195797e-03  8.1845594673916489e-03  1.4003573171725672e-02  1.7010715323305645e-02  2.0255134268292879e-02  1.0810365818521458e-02  -3.0794467869282433e-02  2.2322036720514776e-02  -3.3378299049156451e-01  -6.5740700174875821e-02  3.2676114935671505e-02  -7.1959011392754083e-03  -1.0088166307921097e-01  3.3983023584239637e-02  -1.4726589335257850e-01  -6.4564674939554256e-02  3.0633023573952384e-02  -1.2710441678878567e-01  -1.6017311600404763e-01  3.3939871024236484e-02  -3.3054681235214306e-01  -3.5150427022692277e-01  7.9813471064569957e-03  2.8771441911875990e-02  3.4668304040256455e-02  2.1712836376871741e-02  -2.9998902400949320e-02  2.8467498159350950e-02  2.7230675215117801e-02  2.3949751830141780e-02  1.8037267855718922e-02  4.8577688931374668e-01  -5.0567358569980854e-02  -1.6994894428100718e-01  2.0062325129480224e-02  -2.7602390921103254e-02  -1.1037913251860756e-01  1.0884391007312156e-02  -2.3781228920661926e-01  2.6598381544827972e-02  -1.1437273462620388e-01  3.1469531833351876e-02  3.5576666275688319e-02  -1.1299043548640722e-01  -2.2752514591413403e-01  2.2067181304885910e-02  4.2546954910992621e-03  -8.8260078554841073e-10  2.5966464168364498e-02  2.5179431690463897e-03  4.7795717075016575e-01  3.4646272453988478e-02  1.1365839677353948e+00  3.4988820326939500e-02  2.9319411901477511e-02  5.0703147145761199e-02  2.7632887784046878e-02  4.1400669949444935e-03  2.7151790637422655e-02  2.6838007211892185e-02  2.7477447152934813e-02  2.4663179957190372e-02  2.8269091700393038e-02  -1.9027370407960095e-02  -5.9531905808596353e-03  1.7669508409138814e-02  1.7831762971838028e-02  2.2828027427838488e-02  1.7500505062505094e-02  2.7144608891112587e-02  -7.6165889915568594e-02  1.2123125029793716e-02  2.8058612844345167e-02  1.4993542418200707e-03  8.4671114307721031e-03  -1.3242341108883549e-02  3.5516688148871933e-02  4.7895095233422130e-01  -4.4887310130668011e-02  3.0786549627934846e-02  1.0577126134710303e-02  2.5009478691529929e-01  3.4151790958846462e-01  -5.1610503637696796e-09  1.1905549271205743e-01  3.5739677857784996e-01  3.3075932083204994e-02  1.0222673010813109e-02  1.3903459607882718e-02  -8.5640728178955752e-02  6.9018856707156473e-01  1.0282162561719333e-09  9.9906835822075320e-10  7.1639165724742393e-01  2.3750614120715177e-02  -1.1994445067194399e-01  2.8995842544520544e-02  4.2155954303285315e-01  4.4714423101608674e-03  2.6838958325541985e-02  2.8692676478184999e-02  2.8411212184095168e-02  1.6513717714300585e-02  3.2938118592792921e-02  -1.7207462665011691e-01  1.2321053130799273e-02  3.0100367273472779e-02  1.3354358197108849e-02  6.5961410080372596e-01  -1.7081736528296762e-01  6.8586677112499539e-01  2.7082050003436570e-02  3.9514638828815063e-01  -5.5713092215023144e-02  2.6622255103047457e-02  -2.5984456828311564e-01  -3.9449390080439504e-04  6.7645409551240392e-03  -3.1267139757850576e-01  -1.8676233729491856e-01  9.0747833335070235e-03  1.7026670730127865e-02  -1.9443298836749245e-01  -1.7423036618122856e-01  -1.9005119305093446e-01  -2.0299535471477015e-01  -8.8252235560402056e-02  1.9660114149313984e-02  -3.3807625991087709e-01  3.2783228549031970e-02  2.2383915959801839e-02  1.7861856437760958e-02  3.2488364954844889e-02  -1.1073563334987524e-01  3.6039090898862723e-02  -1.1571691506436543e-01  -1.5642052145235436e-01  -1.0806783855581090e-01  3.1441428879419218e-02  -2.0580691749036784e-01  -1.7973902538756195e-01  3.0728272264790035e-02  -2.6876476659372900e-01  -2.1910904400622905e-01  2.9931790798751082e-02  7.9012333768895271e-03  3.0478545626063981e-02  -3.6607524738266790e-02  8.9140384736055584e-03  -3.2631601838893864e-01  -3.3777560100201626e-01  3.4164289097318105e-02  -3.4112901078426322e-01  9.2436575313723701e-01  2.7914521415303727e-02  8.5959608760460482e-01  9.3752285655571178e-03  1.7539901967613729e-02  -1.4992115421202696e-02  3.1071334458661411e-03  6.2514496041627720e-03  6.9532270306193397e-03  4.0172086457321895e-04  3.0446330747305187e-02  2.7554327003490878e-02  -1.3988253225439018e-01  -2.7013308010941706e-01  2.2586945593396777e-02  -5.9653189713814406e-02  8.6772225503884033e-03  3.6467215827999236e-02  3.1090015091602721e-02  3.3528670057722178e-02  3.1024809701139570e-02  -1.8093507493845373e-01  -1.7937779695978090e-01  2.7944506470055093e-02  2.9137096304767712e-02  2.7346873576359832e-02  3.2771460814712463e-03  3.0283449708509180e-03  4.3987743421715425e-01  -2.8286268302283418e-01  -1.8444073793869468e-02  2.8295905318279170e-02  2.2916024742522783e-02  2.0879304590829786e-02  -5.7197838954760362e-02  3.5622569955948778e-02  1.3946724565272704e-02  -3.7937713215201695e-02  2.1059501959743692e-02  2.6448879330946928e-02  3.1322255747827106e-02  3.1339032080996621e-01  2.8930093587022417e-02  -1.8899776289453246e-01  -1.8695652606334673e-01  2.5621250111331176e-03  3.0212353122043634e-01  1.1302834745377242e-02  -5.0082365576768701e-03  2.9732374126392302e-02  -2.2827880105666781e-01  1.6049877587188555e-02  8.0378488116298729e-03  3.2720422457355479e-02  2.6777269697947022e-02  -2.4572543224641019e-01  -1.4788388553393464e-01  2.8174584372382152e-02  1.9746927934268695e-02  1.9565944481717831e-02  3.0492081905067060e-02  2.2588033936879359e-02  2.2348342288761301e-03  4.3453615952633506e-01  3.0697095031846106e-02  -1.3097489968383058e-01  -1.8929791392833656e-01  -1.1113390455726394e-01  1.5666844046138016e-02  -3.1939351175303954e-01  1.9748765135086804e-02  -5.2168170181416090e-02  2.1371722444780316e-02  2.0408107037178297e-02  1.8864880348430504e-02  -1.7617535940735927e-02  3.4927431776126838e-02  2.6887409765445021e-02  3.0330267542923242e-02  3.1436204797367882e-02  4.7017260754544449e-01  4.4272440759124349e-01  8.2601661859293320e-03  2.9762219091046625e-02  -6.1580051692361505e-02  -5.5541572557219164e-02  7.8985940894140405e-03  1.7338608191039811e-02  5.7480154596020971e-01  -2.2271781625534676e-01  7.1124718095524686e-01  -1.5765856018966534e-01  2.3142541876959043e-02  -6.9699150151390138e-02  -1.4499990599452520e-02  -2.3996805784716926e-01  3.3297367207795643e-02  7.8059416702362416e-01  -1.6743976200909114e-01  1.3177308760257644e-02  3.3834371660442383e-02  2.7235695377864372e-01  2.8608871912187979e-02  6.1527633529101611e-01  3.5554571227080035e-02  -1.0616967812940223e-01  2.7074349935312155e-02  3.0790230830795018e-02  2.5341371856351724e-02  2.8241400603669798e-02  2.7214858522930756e-02  2.6926851759803840e-02  1.6597454473701697e-02  2.8958831434605644e-02  2.7645524329585634e-02  -1.7871250012084125e-01  1.6310120731668081e-02  -1.9397105183469085e-01  -1.4732896752195948e-01  2.8292369503350893e-02  2.9720379934100885e-02  5.4708649734832693e-01  2.5666498680661322e-02  2.8614373316162355e-02  2.5148238348434521e-01  4.5372483613282916e-01  -1.2371275613324776e-02  5.1612920899289139e-01  2.7414145402839114e-02  -4.1880132434488855e-02  3.2664320060330765e-02  -1.8851352552041403e-01  2.8417469257950450e-02  2.2502987567935756e-02  -1.5740164304529347e-01  -4.4859243349404603e-02  7.3832152918825540e-03  7.6733830473716506e-03  2.7387124139096299e-02  5.9294945596280674e-03  -2.7293779679352401e-02  6.0319774950992481e-03  2.7040027950099134e-03  3.0617195639373065e-02  3.6120848751732347e-02  -3.2538710067326443e-01  2.7922821778915675e-02  5.2503447782081747e-03  2.8815706229396712e-03  6.9938140211276874e-03  1.2757961522402867e-02  5.7365299150242792e-03  2.4998644045166458e-02  2.0990522958538475e-02  2.2135475516646817e-02  1.4041227159354184e-02  -1.8469349950626002e-01  -1.7889088488636903e-01  1.1543520579646348e-01  -6.8238039456731042e-02  -9.4242867398312918e-02  -1.8118969487711437e-01  -1.5737257539340538e-01  1.3810652522732987e+00  -1.2978679005891839e-02  1.7415134867252050e-01  8.4576295621823869e-03  6.8242200130267600e-03  2.7774715168912025e-02  3.1722523967590004e-02  3.4801403599438195e-02  1.0604174200525937e-02  3.0937327665938479e-02  6.0382359453652473e-03  1.2923121629641154e-02  -3.0891021019774151e-01  -1.8509088650996555e-01  2.0951148559440490e-02  -3.2117438418938693e-01  -2.4961359245445414e-01  2.8197130609849907e-02  -2.7249598856837648e-01  -3.3334474766540584e-01  3.6579773711168800e-02  3.0012918009424173e-02  1.3173892071515160e-02  1.0906135261602947e-02  1.2086035424552286e-02  2.2412194462135972e-02  -2.0895686121239260e-01  5.6090711613280353e-03  1.5261664614261979e-02  2.2450778020256249e-02  2.2634860259761681e-02  2.7323948588517801e-02  2.7866447263740161e-03  8.4540658958806112e-03  2.9300364171153923e-02  3.2058757194334063e-02  3.0452965846580800e-02  6.5691738553940804e-04  2.5014593838534709e-02  -1.1323759883762750e-01  -3.2352555984633956e-02  -3.3577907809796657e-02  3.5035840414178426e-02  1.6428924125134008e-02  2.5641151902531883e-03  2.5355210402092787e-04  -1.7099433608159545e-01  -1.5272639270293822e-01  -1.2832432891034901e-01  4.0719312894805443e-01  1.2839811286889549e-01  -8.6818541650965864e-02  -1.7537347221052260e-01  -1.7055611318478020e-01  -7.9866219961390303e-02  -3.4449182651093944e-02  -9.8093167920546676e-02  -1.4040508649246738e-01  -1.4551862925314310e-01  2.6140424772085991e-02  3.3460248522780407e-02  1.7304100536314225e-02  2.8071272304057298e-02  1.3328710333420582e-02  1.3194319444169876e-02  -1.6604628074143216e-02  3.0784319602746978e-02  -1.3780645755065407e-01  1.4292123088459884e-02  3.7026811225000761e-02  3.4029741375646225e-02  3.2034467897094340e-02  3.0813617504183068e-02  3.1502276069368312e-02  -7.5696462296041253e-02  -4.3627132952710666e-02  -2.9889664139331212e-01  -3.2057049721296704e-01  -1.3176081159805572e-01  1.2794792260127362e-02  3.5550493714952572e-02  3.2355778385274911e-02  3.3213012577014221e-02  4.0995569185853103e-01  9.7188116172058237e-03  2.7282834569534144e-02  3.0955826661324924e-02  -8.7663010367230426e-02  1.9712737159859526e-02  3.0515368498541712e-01  3.5191554710259657e-02  3.5004346510902222e-02  3.0791761155494639e-02  1.9776389928948580e-02  2.3051352207291965e-02  -1.2310531218734898e-01  2.9247643308339278e-02  -5.0622105181810872e-02  2.1551274407851592e-02  2.9717851091429135e-02  3.2286955692199991e-02  -1.4665574551685107e-01  1.5838586103924638e-02  3.0787804013212870e-02  7.5461214378869712e-01  -1.7467491843543198e-01  1.4043111421351737e-02  3.4406652553406837e-02  -2.4740330573001457e-01  -4.8657531502771419e-02  1.1177211454252716e-02  9.6744089374896213e-03  2.8891787214600000e-02  8.1827067017355615e-01  1.7753394319828437e-02  2.8634287859142998e-02  1.6532311936763997e-02  1.9072060569973112e-02  3.8546182670589585e-01  6.5754683182072862e-03  3.4637449989818664e-01  -2.4094549882696908e-02  7.3708021182055236e-03  -3.3806186802244598e-01  -3.4606596074019969e-01  2.7939525249353784e-02  -3.3728676720371076e-01  -2.1286250039086917e-02  2.6031746864573043e-02  3.0197264965769150e-02  2.4789231147457669e-02  1.7230340166371202e-02  6.4917076679155373e-03  2.8522966817684297e-03  1.1429680523355764e-02  -2.1125270663925499e-02  3.5046103654399766e-02  -1.7806269245963918e-01  3.5487254743448146e-02  3.2156996060161341e-02  1.7925972778373791e-02  -6.3565120660078578e-02  -1.1139258490795736e-01  -8.5795740967646736e-02  -6.4397814818915433e-02  2.7114756243060277e-02  2.7041518658404654e-02  -2.4720876107564624e-01  -1.5323873727683529e-01  -1.7806093007585946e-01  2.6737818920568996e-02  5.9947017246212120e-01  3.3500868915167736e-02  1.2310996638700698e-02  -9.1047654130000974e-02  2.6627825969739047e-02  -2.1894773401017825e-01  2.1576122186830166e-02  -3.2836572828716071e-01  2.4148833187548700e-02  -1.3324691084866142e-01  -1.6272804930583851e-01  -1.9257160850496191e-01  1.4139695915327554e-02  3.1170809656294058e-02  3.5445851861968407e-02  2.6747018291669637e-02  1.2796927889769154e-02  -7.8339796659413832e-02  1.1399967364069139e+00  3.0715802395964512e-02  -6.5196131541895384e-03  -3.0020628794116871e-01  2.9606275336942389e-02  2.1702732253145295e-02  3.0428694964720841e-02  3.3104162179083005e-02  2.8874526265131494e-02  2.5591016916188061e-02  6.9716163680964907e-03  3.4470704301376942e-02  1.1806049802682248e-02  -2.8094179948231858e-02  -3.8022461478988696e-02  4.7324973441910378e-01  4.7150876810831704e-01  3.5118293846131771e-02  -2.5835200585367024e-01  2.0040862716041361e-02  1.3583910009926479e-02  2.7300641140126723e-02  9.0140017546776127e-03  2.5776148153809592e-02  2.6189997089251477e-02  6.1997172185468952e-01  -2.5060694270415677e-02  2.6669424369052428e-02  8.7699646125857331e-02  2.6148720521812435e-01  -1.0491887454786959e-01  1.6008886056265773e-02  3.2233014510908806e-02  -2.3427098924153911e-01  -2.1418398571737005e-01  -3.3107018090317636e-01  2.9180567722954919e-02  2.4981973257761463e-02  -2.5123514444601475e-01  4.5591562094875354e-01  7.6811996868464472e-01  8.5011082267926162e-03  -1.2753261298847696e-01  2.2103816607068130e-02  2.5212658833368373e-02  3.2792918369093933e-02  2.1150148240826876e-02  1.5973462616965122e-09  -1.9078545033010416e-01  2.8704838302099873e-02  2.8017900790002449e-03  -1.9717207981925838e-01  -1.8878231149006833e-01  7.3709555870595392e-03  -1.2357422900943231e-01  4.0678109555842856e-01  3.9164268531957896e-01  1.8657866017982194e-02  3.5117009567354182e-02  3.3575465048181367e-02  3.1993730332348390e-02  3.0561492977022733e-02  3.0809766191095708e-02  2.2228550638931182e-02  -1.6438969208328469e-01  3.5791191292721937e-02  3.5190888435895198e-02  8.9824633984159213e-03  3.8918285317645872e-03  -6.1365256206642883e-02  -2.0621098462682697e-01  2.0468636770871504e-02  -1.1011446428621645e-01  6.0667922050878904e-02  -9.7310341250105955e-10  2.3244188106070669e-02  3.0031683951168255e-02  2.3442323881398039e-02  -1.3273230927136775e-01  2.5802928113392180e-02  1.0102544921971705e-02  8.3285509654550133e-03  1.3669538107056159e-02  3.2335441255211608e-03  -5.4523952263890495e-03  9.6925385858674593e-03  -1.5269135104404197e-03  2.5948739735066253e-03  -1.1746188749275781e-02  3.3586865841299655e-02  2.7181043817987187e-02  -1.4526812914251100e-02  4.1084717705948459e-01  -4.4394139954162847e-03  2.9855220805539456e-02  -4.0880296285773589e-02  4.7166454691661098e-03  5.3880948375929364e-03  2.4088462659258253e-03  -1.9101706182266234e-01  2.1665338153615234e-02  9.8782973690548156e-03  2.1972625677689657e-02  -2.1273696156218008e-01  2.7573783951662038e-02  2.5819607304159418e-02  2.3956369786140574e-02  -1.7648010529670802e-01  -1.8910036453799103e-01  3.4629180349306038e-02  -2.0008153717901447e-01  -2.2984461174334619e-01  -2.2441225530209261e-01  2.9173589849519160e-02  2.5649839710889723e-02  3.0492639278393983e-02  -4.0569713286965775e-01  1.3551199173303259e-02  -1.1970207774656326e-01  2.8214306044404416e-02  3.3726473741463792e-01  -1.3318406989606589e-02  1.6048268830884092e-02  -9.4728691473944582e-02  1.5973462616965122e-09  1.0949153548936308e+00  8.9553040544654716e-01  -5.3893503974672937e-03  -3.5716725173359311e-02  -1.2423900678949069e-01  2.5580500724107558e-02  2.6241416933129744e-02  -1.1176952682482945e-01  1.9074125961004704e-02  -1.6768410531724803e-01  5.3964063150934960e-01  4.8513303444300204e-01  4.8967100730730384e-01  1.8049425926216802e-02  6.9350016322468656e-03  2.8238887481240010e-02  2.6734634578812987e-02  2.6568345170595288e-02  3.3766108412524275e-02  5.4571523186598458e-01  2.7714278207512728e-02  -3.6039028460275441e-01  3.3228942578123637e-02  2.3266006633635070e-02  2.9911135065165101e-02  1.9133815565653634e-02  1.8485445662035461e-02  -1.7822626410105386e-01  3.1243324744281598e-02  -1.8714485690502131e-01  2.3886274169382299e-02  1.097636342217