<?xml version="1.0"?>
<VTKFile type="UnstructuredGrid"  version="0.1"  >
<UnstructuredGrid>
<Piece  NumberOfPoints="2426" NumberOfCells="4534">
<Points>
<DataArray  type="Float64"  NumberOfComponents="3"  format="ascii">0 0.41 0  0 0 0  2.2 0 0  2.2 0.41 0  0.2404508497187474 0.2293892626146237 0  0.25 0.2 0  0.2404508497187474 0.1706107373853764 0  0.2154508497187474 0.1524471741852423 0  0.1845491502812526 0.1524471741852423 0  0.1595491502812526 0.1706107373853764 0  0.15 0.2 0  0.1595491502812526 0.2293892626146237 0  0.1845491502812527 0.2475528258147577 0  0.2154508497187474 0.2475528258147577 0  0.5404508497187474 0.2293892626146237 0  0.55 0.2 0  0.5404508497187474 0.1706107373853764 0  0.5154508497187473 0.1524471741852423 0  0.4845491502812526 0.1524471741852423 0  0.4595491502812526 0.1706107373853764 0  0.45 0.2 0  0.4595491502812526 0.2293892626146237 0  0.4845491502812526 0.2475528258147577 0  0.5154508497187473 0.2475528258147577 0  1.1 0 0  0 0.205 0  1.1 0.41 0  0.55 0 0  0.55 0.41 0  0.275 0 0  0.275 0.41 0  1.65 0.41 0  1.65 0 0  1.375 0 0  1.375 0.41 0  1.925 0 0  1.925 0.41 0  0.8250000000000001 0.41 0  0.8250000000000001 0 0  1.5125 0.205 0  1.7875 0.205 0  0.9625000000000001 0.205 0  1.2375 0.205 0  2.2 0.205 0  0.7560964076246335 0.2151713709677419 0  1.99375 0.2152743902439024 0  2.0625 0 0  0.6875 0 0  2.0625 0.41 0  2.2 0.3075 0  0.6875 0.41 0  1.7875 0.41 0  1.375 0.1486128048780488 0  1.5125 0 0  1.7875 0 0  1.5125 0.41 0  0.9625000000000001 0 0  0.9625000000000001 0.41 0  0.4125 0 0  0.1375 0 0  0.1375 0.41 0  0.4125 0.41 0  1.2375 0 0  1.1 0.1486128048780487 0  1.2375 0.41 0  1.65 0.1486128048780487 0  1.126715909090909 0.2793064024390244 0  1.676715909090909 0.2793064024390244 0  1.348284090909091 0.2793064024390244 0  0.34375 0.3032389320646208 0  1.894702181800738 0.1282910975492754 0  2.092797818199262 0.1282910975492754 0  1.85625 0.3075 0  0.8630851210521902 0.286932093388664 0  0.89375 0.1025 0  0.35 0.1090282786671641 0  0 0.3075 0  0 0.1025 0  0.6526217841291382 0.288229645480046 0  0.7562500000000001 0.09660248895515888 0  0.6568633732316684 0.1557582854763441 0  2.099172119769978 0.25625 0  1.002356446954348 0.1010393851523063 0  1.99375 0.08395950269330846 0  1.459960956013612 0.3075 0  1.569025960719943 0.2986889805672169 0  1.03125 0.3278689922742084 0  0.75625 0.3247156761655783 0  1.959375 0.3126371951219512 0  1.749222215368287 0.1025 0  1.275777784631713 0.1025 0  2.2 0.1025 0  1.225938124459196 0.3075 0  1.550777784631713 0.1025 0  1.44375 0.07430640243902442 0  1.16875 0.07430640243902437 0  0.3528655045338512 0.2063263890916129 0  0.5890337614812103 0.08775733857679162 0  0.8504912436891263 0.190072835691683 0  1.899250267340833 0.2229966846119207 0  0.1020898364287272 0.3140258291809757 0  1.766482954545455 0.2934032012195123 0  1.051658316544432 0.2265720188842194 0  0.2 0.3400647632937836 0  1.421109702350723 0.2261157654379721 0  0.4812500000000001 0.41 0  0.4324401666997539 0.3216425986889796 0  0.098916018031319 0.09171660955420841 0  0.9508742791313441 0.2921736960864468 0  2.13125 0 0  2.118919042110979 0.3422084711244843 0  1.30625 0.41 0  0.20625 0 0  1.597888256393107 0.2173787389261347 0  0.4812500000000001 0 0  0.4324082967851086 0.08384041677422771 0  1.829299675393195 0.07400700849299596 0  0.568219932524165 0.3212274660843853 0  1.71875 0.41 0  0.268005226542646 0.08512186835670006 0  1.16875 0.41 0  2.038220665644273 0.332420740103091 0  0.6678017527842831 0.07701763866051195 0  0.89375 0.41 0  0.5111435174287687 0.07335351331957608 0  0.176193934632343 0.0734896648625108 0  0.07390688010811153 0.1697064032433452 0  0.05452951551825875 0.25625 0  0.61875 0.41 0  1.452769549894695 0.1548122580621249 0  1.369219062229598 0.07430640243902442 0  1.30625 0 0  1.720943423819132 0.1714577452753128 0  1.157188124459196 0.205 0  1.094219062229598 0.07430640243902437 0  1.304056576180868 0.1714577452753128 0  1.67579304192913 0.07430640243902437 0  0.2672907219039591 0.3037570723459566 0  1.209670467133757 0.1362100266964769 0  1.58125 0 0  1.03125 0 0  0.06875000000000001 0.41 0  0 0.35875 0  1.58125 0.41 0  1.631724228912893 0.3381867502687533 0  0.8240147050827157 0.1225233169495944 0  1.825608881788174 0.14499488549201 0  1.85625 0 0  1.44375 0 0  1.44375 0.41 0  1.85625 0.41 0  2.13125 0.41 0  0.7562500000000001 0.41 0  0.7562500000000001 0 0  0.89375 0 0  0.34375 0 0  0.34375 0.41 0  0.20625 0.41 0  0.06875000000000001 0 0  1.16875 0 0  1.03125 0.41 0  0.61875 0 0  1.71875 0 0  1.99375 0 0  1.99375 0.41 0  0.3972301426712326 0.2593842555611471 0  1.340625 0.3489494290853124 0  1.134375 0.3489494290853123 0  1.700180620188976 0.3438659752031281 0  0.5003922072260507 0.341765274319271 0  0.6212513815748759 0.2209216137134851 0  0.6885607720119526 0.215393731583638 0  1.033412357328477 0.1612902025713047 0  2.135782184673599 0.07126652247502523 0  1.668441847249787 0.2129203728327609 0  1.295782514339747 0.2378437748815763 0  1.409375 0.3520314716057996 0  2.129248544730567 0.1906135162504124 0  2.060771381434487 0.1989445750470348 0  2.013252586573865 0.1496169464686054 0  1.942766402200229 0.1734448904596831 0  1.895522487186454 0.06076163953489683 0  2.069553871656643 0.06605731020975725 0  0.9281250000000001 0.3539050257418612 0  1.274680914880868 0.3520219391081363 0  0.3030138498135347 0.2488370856812789 0  0.8223773249563684 0.341761430177996 0  0.9018164060227267 0.2326477848736739 0  0.8143027982392851 0.2440265179987191 0  0.7225087161029304 0.2699907246386231 0  1.614713220494657 0.09473434380863296 0  0.378125 0.3566194660323104 0  0.309375 0.3566194660323104 0  1.72990325744076 0.2380068107952482 0  0.6915936999299305 0.3429472631234433 0  0.6268087624932918 0.3466455500035671 0  1.356580098625191 0.2120393231351682 0  0.3060160055995138 0.1590148921620778 0  0.3954648733249218 0.156380553890791 0  2.034370752044885 0.2668681600792073 0  1.51768709249349 0.3426260931494756 0  1.561883724969884 0.1650446847858835 0  1.197344062229598 0.2523725417393646 0  0.9281250000000001 0.05124999999999999 0  1.804085235518364 0.3468178408964637 0  1.817887819205233 0.2589243285818559 0  0.9107805776841645 0.1653834539923287 0  1.905897727272727 0.3485060975609756 0  0 0.05125 0  0.844212276491354 0.0614201194265309 0  0.378125 0.05244637078450034 0  1.008571329007178 0.2705955969954818 0  0.7724048032149464 0.1559079561351474 0  0.7203054377831548 0.04941826955193545 0  1.192836486056382 0.3562350748565544 0  0.5967108020713719 0.1479294686523888 0  1.28257088594801 0.2944411014911587 0  0.7041890234548132 0.1222025174424443 0  1.474860187679412 0.2504218616229368 0  1.406767003493824 0.2829282258560709 0  0.3201325899091991 0.05890121548989159 0  0.5979220912872258 0.2727591995766724 0  1.845656689180403 0.1998310418452388 0  2.144958525570388 0.2909790873294231 0  2.2 0.15375 0  1.57794966442982 0.3540357145964566 0  0.9483181579620558 0.1214693369582054 0  0.0496154796471391 0.333125 0  1.508991196088596 0.1421783375065625 0  0.09776612425612034 0.2204896805326566 0  1.50436820029908 0.06143401634903343 0  1.223857000523521 0.0823554862453532 0  0.2531953886959507 0.3582003209055908 0  1.153316824384777 0.1289850171317837 0  2.148922302309752 0.1258841779285271 0  1.621993280276081 0.2841214267927899 0  1.550118654119087 0.2461998729100966 0  1.327182649291491 0.1216967252533594 0  1.753125 0.04556020050186112 0  1.271875 0.04556020050186116 0  0.9824282234771738 0.05051969257615314 0  1.039510847866381 0.05683351822678641 0  1.94956388244759 0.1180512551534177 0  1.949997712993411 0.04965831614304109 0  1.771961817615021 0.1530278789497521 0  1.909246823951428 0.2812757146784527 0  1.101974016627944 0.2038045618205013 0  0.7906250000000001 0.0444674049654372 0  1.948575539857022 0.2445328248721197 0  1.697271520964565 0.1233917627620729 0  1.065625 0.3689344961371042 0  1.085849084308977 0.3170853572226867 0  0.9840604787624379 0.3582077516409966 0  1.577403511714593 0.05463601888079143 0  0.05622663515370135 0.05493816910862376 0  0.8762396958822678 0.3392249777398821 0  1.751571320346033 0.3651102912045228 0  1.055327852410105 0.111864799513911 0  0.1583785085108421 0.2994699345738728 0  0.1455283439499995 0.3542795598723423 0  2.2 0.35875 0  0.225705107073232 0.05084786997482401 0  0.1455852234589313 0.1166494778469164 0  1.466879772203159 0.3611261772912453 0  1.990280163552011 0.3564754268533217 0  1.17471064520912 0.2990917256188288 0  0.7221925551074015 0.1739659241003985 0  0 0.25625 0  2.2 0.25625 0  2.2 0.05125 0  0 0.15375 0  1.853978576207987 0.35875 0  0.21965520498276 0.1015543880164422 0  1.515638456102889 0.2882700110184686 0  0.09048297387599738 0.3637717362208066 0  2.150453692751374 0.2387066338105111 0  1.323782677156475 0.04897634338873398 0  1.409375 0.03715320121951221 0  1.406484531114799 0.1087852750766809 0  1.134375 0.03715320121951218 0  1.627401732573545 0.04552157221025036 0  0.446875 0.3713289093361426 0  2.045405893604797 0.1105340662939892 0  1.255408269734577 0.1577307500159216 0  2.028125 0.03707597992059326 0  0.04420832937638274 0.128125 0  0.5817551710628505 0.3702615006034757 0  0.1197849154434487 0.2663398672460083 0  1.248258025468107 0.2565907092181813 0  0.1300647302703173 0.0508462728378621 0  0.7738123537510222 0.2761231499240648 0  1.203125 0.0366132337404304 0  0.5444207041612499 0.111205399508622 0  0.8016457771828226 0.1964238426015905 0  2.072662025974815 0.2975086504196739 0  0.4019040438866802 0.2103993403217561 0  0.4677372330974851 0.04827477407630658 0  0.8677218578847617 0.1432970430140788 0  1.058011122005847 0.2758866204059919 0  0.4429405887974043 0.2746184809910084 0  0.5843750000000001 0.03726989681835222 0  0.6318596133730142 0.1128692182767254 0  0.4862628454464408 0.2957029785303028 0  0.7805186758662764 0.3673578380827891 0  1.887722846421017 0.1760882698830035 0  0.3498893058880703 0.256189258793856 0  1.472640588990488 0.1118278026240017 0  1.865937103925594 0.2604137786483804 0
[...]
<PointData  Scalars="f_43"> 
<DataArray  type="Float64"  Name="f_43"  format="ascii">4.4284234868912026e-01  4.7328764997608291e-01  9.9094923151958730e-10  1.1924572795512220e-09  -3.4139968438044377e-01  -3.0534899366366769e-01  -3.2832265811428435e-01  -4.9583008890625996e-01  -9.1313077762134542e-01  8.8280248777551640e-01  2.0167041748574182e+00  4.2036065351895957e-01  -1.1381017305934393e+00  -4.8840715125638412e-01  -2.5832994138725618e-01  -2.3493769093615097e-01  -2.7115538116575999e-01  -4.3989327837434961e-01  -1.1071851087120474e-01  -8.8735549374804573e-02  -2.7253435339134607e-01  -1.2038717311360544e-01  -5.2228109325679409e-02  -4.9985697310512112e-01  1.0872631643754540e-02  7.8492357856326622e-01  2.5442184704539193e-03  -1.8224980094185941e-01  -1.7801502530763899e-01  2.0294357099888360e-02  4.1172308297090433e-02  3.4307431174184340e-02  2.9397899345006671e-02  3.4700678509776962e-02  2.7563893736432015e-02  1.9124248167612514e-02  1.8217056827158823e-02  -6.8784180684260884e-02  -6.8821102453413982e-02  3.2775446853001031e-02  2.4625511968767205e-02  3.2669962426194118e-02  3.0758684092306036e-02  1.6643203935973280e-09  -4.2997321686240604e-02  1.5334467993145237e-02  9.5738431570638587e-03  -1.3027878025272069e-01  1.1810868294735759e-02  6.3353802575915954e-10  -1.3044901414205431e-01  2.4181131236781381e-02  3.5080241123163991e-02  3.4429488638707921e-02  2.6533700654991024e-02  3.1141475649749003e-02  -2.0000715854269806e-02  -2.5426240179284503e-02  -1.7337190118565041e-01  3.9000854598592866e-01  3.6763132192153608e-01  -1.5637918111597249e-01  2.1557310235174196e-02  2.5518768301672424e-02  2.6073836630165308e-02  2.8120422287676420e-02  2.0719845238802721e-02  3.3027417124840558e-02  2.8911177273568293e-02  -2.3536895356470011e-01  2.1318233543174189e-02  7.1044449887857275e-03  1.9050736112032209e-02  -1.1218445694764451e-02  -1.6481807605674071e-02  -2.7567716277206583e-01  5.3942406408900989e-01  5.7323303900027478e-01  -1.7215852740605520e-01  -8.0462718216690460e-02  -1.7993945938720307e-01  9.5853908242928415e-03  6.2072692002561438e-03  1.4459566397078063e-02  2.7023798661002605e-02  3.4177709933000441e-02  -6.3772174442978738e-03  -8.6788573597499447e-02  1.7008221377485408e-02  2.7516327905148366e-02  2.5448796740449996e-02  -1.4481005048672942e-09  2.7978287229246720e-02  3.2473169541869192e-02  3.7194698167125312e-02  1.7246808861109561e-02  -3.3429152963346509e-01  -1.9979185311812345e-01  2.1510433051258521e-02  1.7835097549261471e-02  4.8289259625001046e-01  2.5773195600527828e-02  2.5727053199799670e-02  1.7133821765437773e-01  2.8324126020475935e-02  -1.7897632574354183e-01  -1.9441876198667069e-01  5.1181759438112806e-01  -1.7242693625270560e-03  4.8023428349527218e-03  7.5176048782537109e-03  2.8940104459816523e-02  2.1772981682798778e-01  3.4039276567147989e-02  -1.8777919023510825e-01  -1.9328149363802324e-01  2.4772769458547741e-02  -2.0336048301306700e-01  2.9833872037159467e-02  -1.2907008839848572e-01  1.6428028274130226e-02  1.3852198317876306e-02  -1.4212092148564612e-01  -4.3802232046270970e-02  -2.0252750783511408e-01  2.3439287591909497e-01  9.1739892638943998e-01  7.3996095588999167e-01  -1.5922577455018408e-01  3.6389182311779476e-02  3.4592915757661789e-02  2.8535252468744745e-02  2.7472294661989399e-02  2.9715157129618742e-02  1.3344353606341347e-02  3.0291287494038210e-02  2.8362558384151755e-02  -1.6691582575051542e-01  2.3368322571423832e-02  3.1255193107205488e-02  -6.4868499169854052e-04  4.3068010460874351e-01  4.5501367438545226e-01  3.4709426449319243e-02  3.5649145444247375e-02  -2.5192984676162652e-02  2.5075294721436495e-02  2.3188463486398313e-02  3.6538930562054379e-02  2.7551361548978536e-02  2.0233063035885429e-02  6.2011536221547228e-03  -9.8893149898533247e-02  -9.7650256873171762e-02  -4.3389603531716385e-02  -1.1751029118232005e-01  -8.7297256126119757e-02  2.1753800606032872e-01  4.5896459189241290e-01  1.6583786069893847e-02  -1.1375095657102610e-02  -1.5922202001444810e-01  2.8432140985433306e-02  1.4466390796605407e-02  1.5951213980191434e-02  -3.1821095349986811e-01  2.8645300517527561e-02  1.0093529602248729e-02  3.1745248058097662e-02  -1.9240298668717762e-01  -2.2303841945975816e-01  -1.3693930423787051e-01  3.1109976712320957e-02  4.4030816641492092e-03  3.1627630876380285e-02  3.1966975097449002e-02  2.6186624531854195e-02  5.2925367365467815e-03  1.0331937538320514e-02  1.2489473363594784e-02  1.8000253647930325e-02  2.0972377418142563e-02  8.8916222024366370e-03  -3.0527750399856866e-02  2.9427751256817278e-02  -3.3320090134371672e-01  -6.0655078291395145e-02  2.9130514734066405e-02  2.5040246646298994e-03  -9.5863473211047975e-02  2.9350061065061266e-02  -1.4718041653195646e-01  -6.4229095053060056e-02  2.9062756355337713e-02  -1.2670859906984844e-01  -1.6075913902016073e-01  3.0767270330172965e-02  -3.3016032589883954e-01  -3.5022043994831004e-01  1.3998476027915685e-02  3.0720180798773852e-02  3.1989925785482078e-02  3.1881876412636262e-02  -2.9317612286420394e-02  2.2418168115121036e-02  2.1094998142152138e-02  2.8706273690716846e-02  1.8193590401870876e-02  4.8621785447826882e-01  -5.5428951951852656e-02  -1.6914250203207243e-01  1.2433014339303229e-02  -3.6780826473619938e-02  -1.1043351273276945e-01  2.1076523702941247e-02  -2.3397162159256291e-01  3.0770488797651849e-02  -1.1619911201401657e-01  2.9830848118176444e-02  2.7316441935072360e-02  -1.1239886847277744e-01  -2.2999092028665152e-01  2.1417163371089201e-02  5.4125164126105751e-03  -1.6376276983749044e-09  3.4877791234472641e-02  8.9709542960886932e-03  4.7842545129129688e-01  3.4662864561575725e-02  1.1370417645065045e+00  3.4903305332029261e-02  2.0138693352815144e-02  5.1159945386671776e-02  2.1914084564476861e-02  3.5639147615926436e-03  3.5137756205956432e-02  3.4227853143050040e-02  3.1324013522505439e-02  2.7716149321481774e-02  2.4130036618357061e-02  -1.2138271734037222e-02  3.1535841463054930e-03  1.7619091735122518e-02  1.7516592541103115e-02  2.6869156174317524e-02  1.7749482865284504e-02  2.9077702202158755e-02  -7.9310500658191091e-02  1.7149555020613948e-02  2.7913351536791364e-02  -4.7356022200072357e-03  4.4076941771521421e-03  -1.8981490617249384e-02  3.1023939604833711e-02  4.7939046028950649e-01  -4.0582140313680785e-02  2.6968034048950408e-02  1.6688726627515311e-02  2.5059462428955592e-01  3.4201002972149042e-01  -5.5496702243037617e-09  1.1947076740642784e-01  3.5781860381408170e-01  2.7538212280681002e-02  1.6263054899477995e-02  2.2858439976630146e-02  -8.8094543267433836e-02  6.9064928905576473e-01  6.3353802575915954e-10  6.1204209561196664e-10  7.1684375491241714e-01  1.9761238270512512e-02  -1.1957418217856043e-01  3.1197048258364991e-02  4.2203725089269845e-01  4.8632807155437876e-03  2.9979400857826952e-02  3.6497781162749439e-02  3.6205894733166967e-02  1.4353112940046398e-02  2.9409746831717633e-02  -1.7222485136768778e-01  1.0444488492266401e-02  2.6756585036422253e-02  1.1960124970563934e-02  6.6006341794071233e-01  -1.7130095304976026e-01  6.8633763682462767e-01  3.2333887483692265e-02  3.9556606223958390e-01  -4.7271206929000588e-02  1.8449355934058369e-02  -2.5790885737521091e-01  -1.4418648560905938e-03  1.1475014891257823e-02  -3.1252654647992972e-01  -1.8560947744285514e-01  8.3601545708165918e-03  1.3934628024152108e-02  -1.9431963742547145e-01  -1.7271368523461206e-01  -1.8699005844874983e-01  -2.0306210077203943e-01  -8.5014173193972337e-02  2.1214906435942468e-02  -3.3809767941074215e-01  3.6159409501246721e-02  1.8714828919161645e-02  2.7042191250196010e-02  3.1728392111674546e-02  -1.1018741622589429e-01  2.7322752276885000e-02  -1.1459180723879495e-01  -1.5488501754858872e-01  -1.0671061313386190e-01  3.0513291789103465e-02  -2.0491943325153289e-01  -1.7870319209630500e-01  2.9735014152265104e-02  -2.6970858030019634e-01  -2.1921060681996093e-01  2.4730123610174275e-02  6.5415473476894467e-03  3.3290354189127382e-02  -3.0208484031170792e-02  1.4152242114110295e-02  -3.2586268950347391e-01  -3.3753418706874605e-01  2.9631502594854378e-02  -3.4034073299899709e-01  9.2481594065063122e-01  2.1792821732586978e-02  8.6005311567750276e-01  1.6087989957818190e-02  2.1052493157595886e-02  -1.4853397859119110e-02  3.6487140670317898e-03  9.1180133947378304e-03  1.0958073541937946e-02  -6.5149034552541675e-03  2.0231553395628023e-02  3.5119984188110062e-02  -1.4006419689802349e-01  -2.6900283094312571e-01  2.6335374709876919e-02  -5.5562986080840669e-02  1.5496348132001183e-02  2.7834065418157916e-02  2.6513802903986815e-02  3.5853927464163951e-02  3.0061837848008845e-02  -1.8136381584608433e-01  -1.7839674774937736e-01  3.3183196690424618e-02  2.8931991970503661e-02  2.8454801961386295e-02  2.8386693444089721e-03  3.7181713975034804e-03  4.4034950215863805e-01  -2.8236207718358741e-01  -1.7955827023905583e-02  3.4863575623966046e-02  2.6192950508200960e-02  2.2741376547670677e-02  -6.1747502197038749e-02  3.2759587305535416e-02  1.7575245679008748e-02  -4.1326535932842225e-02  2.4865118987002274e-02  2.1945792541620858e-02  2.8583706065663433e-02  3.1379951794585048e-01  3.3956821247829935e-02  -1.8767512188858756e-01  -1.8551391087688174e-01  8.2034771980164581e-03  3.0261822204563721e-01  9.3019073032207713e-03  -1.2585196393741480e-02  3.3415941347650892e-02  -2.2879504955685592e-01  2.6288524898032590e-02  6.9531592162493791e-03  3.6339152050703816e-02  3.5218775418419543e-02  -2.4701056450014910e-01  -1.4850846615200233e-01  3.0339768348711653e-02  1.7706233445799257e-02  3.0055295077078190e-02  2.7433770707622328e-02  3.1689991811433657e-02  2.9088823263926570e-03  4.3496081992772617e-01  2.9956094120211045e-02  -1.2997065978140857e-01  -1.9055152326272229e-01  -1.0878417210431646e-01  1.4777639685948031e-02  -3.1868941140784862e-01  1.9100162644989559e-02  -5.5897604882479697e-02  2.3133800614320299e-02  2.1230595801861693e-02  1.9011938657781700e-02  -1.3039717106937118e-02  3.4769518600628074e-02  2.8017821202465907e-02  2.8907752060724719e-02  2.8390751078720168e-02  4.7061081565276752e-01  4.4319504672697752e-01  1.3668803553456958e-02  3.6290637316121345e-02  -5.6805232248356034e-02  -5.4977628564100753e-02  4.6034719802529652e-04  1.1510189396785275e-02  5.7526765678850778e-01  -2.1926906630410720e-01  7.1169368559827229e-01  -1.5731217783340043e-01  2.7022330577641328e-02  -7.5903131135914834e-02  -1.8113957209246287e-02  -2.3901775796058525e-01  3.5191244175821014e-02  7.8104751620431534e-01  -1.6704876497980242e-01  1.1519300811270767e-02  2.8116525280585027e-02  2.7285198040536274e-01  3.2127450609693790e-02  6.1573921794014441e-01  3.3512901606291598e-02  -1.0734727254754904e-01  2.7197082068753185e-02  3.0819662622187480e-02  2.7588565135576618e-02  2.8926046735675871e-02  3.4290709445445447e-02  3.3669127224857320e-02  1.8742838460538546e-02  2.7725273486152332e-02  3.2941795364491044e-02  -1.7708404849494916e-01  1.5597252701338150e-02  -1.9800112688292429e-01  -1.4608388738392789e-01  2.0176366438023095e-02  2.4371449567349143e-02  5.4753019454873098e-01  3.5648308733027802e-02  3.4203543139812928e-02  2.5189196823356158e-01  4.5415685154146074e-01  -1.8168685917398304e-02  5.1657276439668387e-01  3.5184054362997007e-02  -4.8732477703182030e-02  3.0892383435286729e-02  -1.8721197105320284e-01  3.1905940513938358e-02  2.5005412556172356e-02  -1.5565492334318448e-01  -4.1777389102694996e-02  1.2222172104341289e-02  1.4310114851299720e-02  2.8575098393892905e-02  8.6159092874896100e-03  -3.1328027541728344e-02  7.5808181820323124e-03  3.0566022155853827e-03  2.5111352506381496e-02  3.2769463115590411e-02  -3.2482046461175246e-01  3.6815262657396555e-02  2.3129375948440492e-03  2.4457521929873338e-03  5.3765542095241979e-03  1.6681500718577501e-02  8.1845120666921567e-03  3.2089299980024071e-02  2.3408822939754013e-02  2.5623555160693545e-02  1.4542104680265225e-02  -1.8487169257085964e-01  -1.7916498304843106e-01  1.1587577353453027e-01  -6.3235748930749222e-02  -9.5598241093870995e-02  -1.8153849603680708e-01  -1.5738953168529238e-01  1.3815222477626499e+00  -4.7835079066455687e-03  1.7463421309157548e-01  1.4851086461048817e-02  9.6882499678083486e-03  2.9221321425469893e-02  2.8396663450909625e-02  2.7307449655499586e-02  1.5132757459142547e-02  3.4075332199809523e-02  5.3015380877886997e-03  2.1996613590295869e-02  -3.0799498395738717e-01  -1.8401737737599380e-01  2.3493976493605011e-02  -3.2077885295208286e-01  -2.4813347600147787e-01  2.1078580127557738e-02  -2.7265481726109358e-01  -3.3352447012941411e-01  2.6175242279881206e-02  3.2386565741708936e-02  1.4288571014032903e-02  1.1690716597994963e-02  1.6918445614078986e-02  2.8263655654063899e-02  -2.0729136209118257e-01  5.8620680393210887e-03  1.6011699542585623e-02  2.9615494361152659e-02  1.6450907414124270e-02  3.1936770163184303e-02  2.4317824136536764e-03  7.1718357701973890e-03  3.6270134774066036e-02  2.8979807702670821e-02  2.6920643398468194e-02  -4.5683784717249782e-03  2.7676769148271413e-02  -1.1342392805276584e-01  -3.1358754551770951e-02  -3.3780836730573520e-02  2.7101635905294526e-02  1.4232746336019097e-02  3.1679148842671014e-03  6.1789573029624777e-03  -1.7114774347290448e-01  -1.5193047460160294e-01  -1.2822677892816955e-01  4.0767698828395954e-01  1.2885614237225351e-01  -8.3373765551720727e-02  -1.7390045130061943e-01  -1.7098991701969510e-01  -8.2725467087036222e-02  -3.4126609335024483e-02  -9.7866514713590660e-02  -1.4019076148519835e-01  -1.4568709346564118e-01  1.8847727138879736e-02  3.0150683369086786e-02  1.6842338084368309e-02  2.4867681984291980e-02  1.2016958993038963e-02  1.7261654692133317e-02  -9.5332345377357203e-03  2.9981396443974108e-02  -1.3734954126327420e-01  1.3061541636040281e-02  2.9056874705004086e-02  3.4021996565158322e-02  3.2228836487285410e-02  3.6575294083726159e-02  2.4985441084898783e-02  -7.1386392803182555e-02  -3.8663588824850437e-02  -2.9922845254195779e-01  -3.2027031820961543e-01  -1.3108444628370458e-01  1.9931398888583984e-02  2.9815314158639701e-02  3.0248386306451772e-02  2.3772462110496169e-02  4.1037847155395918e-01  1.8009071635954076e-02  3.2205942261812101e-02  2.8748384261792059e-02  -8.6348018455465178e-02  2.0162773115163405e-02  3.0563853226477183e-01  2.6133410479637333e-02  2.6806733594206406e-02  3.1444740502788886e-02  1.7914290104022530e-02  2.5816244313083211e-02  -1.2266965153825760e-01  2.9482650912720947e-02  -5.0200763481043645e-02  2.4815372038432423e-02  3.3555558196608291e-02  3.1399861102204586e-02  -1.4693987222902002e-01  1.7478874407250759e-02  2.9661913566595824e-02  7.5507081452949987e-01  -1.7269017879728063e-01  1.2583395261542762e-02  3.0451033424910064e-02  -2.4765744675014462e-01  -5.2738306448050831e-02  9.5841834808258388e-03  7.5290652549774113e-03  3.3408011119113082e-02  8.1873378292382393e-01  2.8516344903095563e-02  3.0776527876886534e-02  1.7897430662541344e-02  2.0186750288933325e-02  3.8594867772708902e-01  1.0333764291176882e-02  3.4678642230095280e-01  -2.6535443662683598e-02  1.3688389413567951e-02  -3.3688073186209544e-01  -3.4527822151782495e-01  2.2813477206625514e-02  -3.3693429960340165e-01  -2.0389838811269191e-02  2.0267297942608561e-02  3.2029440688840026e-02  1.9329910409852807e-02  1.6858388808748442e-02  9.6750033762434996e-03  3.1219532434915757e-03  1.6689018206275514e-02  -1.1837518713332591e-02  3.1254842804541945e-02  -1.7809073511215107e-01  3.0778293506591305e-02  2.8703046556415774e-02  1.8472113410089742e-02  -6.7724312877307027e-02  -1.0889101535595967e-01  -8.0456107252678044e-02  -5.5306467540922451e-02  3.4033465501739760e-02  3.3967773484359726e-02  -2.4514378964262687e-01  -1.5362074013815247e-01  -1.7878567497363870e-01  3.5096705480516119e-02  5.9990840267046897e-01  3.3611961657534419e-02  1.2710517193043575e-02  -9.0437036164043333e-02  3.2056169237525627e-02  -2.1805896286079507e-01  1.9410970462413978e-02  -3.2774808623170787e-01  2.1518098106355733e-02  -1.3252351901698101e-01  -1.6187021955586336e-01  -1.9163874185251401e-01  1.7584298531382620e-02  2.6019328628361166e-02  3.1871568336834105e-02  2.1831823903831669e-02  2.3778869123799343e-02  -8.1239399491477141e-02  1.1404505788972210e+00  2.7393656340028816e-02  -5.1694308457686630e-04  -3.0073109416998772e-01  3.3253934577548105e-02  3.0168421977759846e-02  2.8453538954936141e-02  3.6466484622302918e-02  2.3270228181454834e-02  2.0238283564475244e-02  8.2408911964407562e-03  3.5072964416823185e-02  1.6741596372609191e-02  -2.5497852584771222e-02  -3.9888122896540562e-02  4.7368902888802505e-01  4.7194814907272403e-01  3.2995612485571230e-02  -2.5787236344187459e-01  2.0912083355804027e-02  5.8824854870541798e-03  2.1121969571920463e-02  1.3700668807497803e-03  3.0407950533185638e-02  2.5070496922285863e-02  6.2044102773994514e-01  -2.8781658254572143e-02  3.3163255178469693e-02  8.8219493140250529e-02  2.6198741486170329e-01  -1.0438982644903878e-01  1.5403510844747455e-02  2.8289257018010650e-02  -2.3174650784096146e-01  -2.0927702757497235e-01  -3.3056208771832224e-01  2.2477360839657717e-02  2.0857010597204025e-02  -2.4902250878095186e-01  4.5634927021975502e-01  7.6857896129094483e-01  6.7956558700711196e-03  -1.2639749812329143e-01  2.4786089564768948e-02  3.3470686270790487e-02  2.8913710526251933e-02  1.8394603580381662e-02  1.6643203935973280e-09  -1.9080260611214572e-01  3.4387233053912246e-02  2.4757659487604313e-03  -1.9765512927784037e-01  -1.9184234802135280e-01  1.2127047947304523e-02  -1.2310676481288661e-01  4.0726372870479804e-01  3.9212981939389707e-01  1.7961798189381779e-02  2.9335484234694825e-02  2.8693566059490548e-02  2.8879687106901232e-02  3.1005587886015221e-02  3.6755497538891811e-02  1.8745599505023781e-02  -1.6367334707531597e-01  2.7803679814748947e-02  2.7606439450762989e-02  2.6820339661960467e-03  -3.3369788269950267e-03  -6.5840140205099429e-02  -2.0556801874288236e-01  1.9441680888443030e-02  -1.0961192383688505e-01  6.1126417625129811e-02  -1.4481005048672942e-09  3.0485040311518673e-02  3.1429753795104383e-02  2.8785469216047830e-02  -1.3247328383431486e-01  2.8151822133626263e-02  1.2325832311926624e-02  7.9915285752734516e-03  2.0928324856378081e-02  1.0977390165157452e-02  -2.3779098661219815e-03  1.5283310902567395e-02  7.5665092962552017e-03  1.0349230970181141e-02  -2.6542680267135329e-03  3.5827066272935505e-02  3.5356697432054163e-02  -1.6196599157525571e-02  4.1126756435345829e-01  3.0435078645959612e-03  2.5456128406297913e-02  -4.5661367116315313e-02  6.0641587306873475e-03  6.8139269278640847e-03  2.9905749804606360e-03  -1.8982282715814125e-01  1.8316441587596113e-02  1.6431479230047653e-02  3.2370228261788779e-02  -2.0962370497968466e-01  2.7354110290300687e-02  2.8042323057325756e-02  2.7011901589883321e-02  -1.7475074872477789e-01  -1.8739567145159036e-01  3.0339573125235060e-02  -2.0302996865672257e-01  -2.3310247154809896e-01  -2.2574788836815848e-01  2.2276664048284867e-02  1.9457378660247091e-02  3.1739033571872015e-02  -4.0540462242052383e-01  2.5402974247176330e-02  -1.1929133746440099e-01  2.5459039086736177e-02  3.3775780413399342e-01  -2.2172990404424116e-02  1.4940050683446799e-02  -9.6204006500760719e-02  1.6643203935973280e-09  1.0953712377522091e+00  8.9598948923625199e-01  -1.3280608805420605e-02  -3.4963015822267032e-02  -1.2216133766585775e-01  3.4768279029460683e-02  3.5668385330656159e-02  -1.1038701332367681e-01  1.9655799617937047e-02  -1.6859757462907549e-01  5.4010599015746985e-01  4.8560056701223558e-01  4.9014125046002793e-01  1.8277250973117110e-02  1.0136587249737806e-02  3.2940415163949278e-02  3.4360424608382692e-02  3.4670146372769384e-02  2.8687693106786281e-02  5.4616662801786309e-01  1.8457222624219404e-02  -3.5974011080053964e-01  2.9007346151398921e-02  2.3233916107946367e-02  2.4536215831603085e-02  1.9258698286019615e-02  1.8418217234449172e-02  -1.7814691316361081e-01  2.9193855497862058e-02  -1.8770956874185685e-01  2.7224126945842555e-02  1.96231112898