<?xml version="1.0"?>
<VTKFile type="UnstructuredGrid"  version="0.1"  >
<UnstructuredGrid>
<Piece  NumberOfPoints="2426" NumberOfCells="4534">
<Points>
<DataArray  type="Float64"  NumberOfComponents="3"  format="ascii">0 0.41 0  0 0 0  2.2 0 0  2.2 0.41 0  0.2404508497187474 0.2293892626146237 0  0.25 0.2 0  0.2404508497187474 0.1706107373853764 0  0.2154508497187474 0.1524471741852423 0  0.1845491502812526 0.1524471741852423 0  0.1595491502812526 0.1706107373853764 0  0.15 0.2 0  0.1595491502812526 0.2293892626146237 0  0.1845491502812527 0.2475528258147577 0  0.2154508497187474 0.2475528258147577 0  0.5404508497187474 0.2293892626146237 0  0.55 0.2 0  0.5404508497187474 0.1706107373853764 0  0.5154508497187473 0.1524471741852423 0  0.4845491502812526 0.1524471741852423 0  0.4595491502812526 0.1706107373853764 0  0.45 0.2 0  0.4595491502812526 0.2293892626146237 0  0.4845491502812526 0.2475528258147577 0  0.5154508497187473 0.2475528258147577 0  1.1 0 0  0 0.205 0  1.1 0.41 0  0.55 0 0  0.55 0.41 0  0.275 0 0  0.275 0.41 0  1.65 0.41 0  1.65 0 0  1.375 0 0  1.375 0.41 0  1.925 0 0  1.925 0.41 0  0.8250000000000001 0.41 0  0.8250000000000001 0 0  1.5125 0.205 0  1.7875 0.205 0  0.9625000000000001 0.205 0  1.2375 0.205 0  2.2 0.205 0  0.7560964076246335 0.2151713709677419 0  1.99375 0.2152743902439024 0  2.0625 0 0  0.6875 0 0  2.0625 0.41 0  2.2 0.3075 0  0.6875 0.41 0  1.7875 0.41 0  1.375 0.1486128048780488 0  1.5125 0 0  1.7875 0 0  1.5125 0.41 0  0.9625000000000001 0 0  0.9625000000000001 0.41 0  0.4125 0 0  0.1375 0 0  0.1375 0.41 0  0.4125 0.41 0  1.2375 0 0  1.1 0.1486128048780487 0  1.2375 0.41 0  1.65 0.1486128048780487 0  1.126715909090909 0.2793064024390244 0  1.676715909090909 0.2793064024390244 0  1.348284090909091 0.2793064024390244 0  0.34375 0.3032389320646208 0  1.894702181800738 0.1282910975492754 0  2.092797818199262 0.1282910975492754 0  1.85625 0.3075 0  0.8630851210521902 0.286932093388664 0  0.89375 0.1025 0  0.35 0.1090282786671641 0  0 0.3075 0  0 0.1025 0  0.6526217841291382 0.288229645480046 0  0.7562500000000001 0.09660248895515888 0  0.6568633732316684 0.1557582854763441 0  2.099172119769978 0.25625 0  1.002356446954348 0.1010393851523063 0  1.99375 0.08395950269330846 0  1.459960956013612 0.3075 0  1.569025960719943 0.2986889805672169 0  1.03125 0.3278689922742084 0  0.75625 0.3247156761655783 0  1.959375 0.3126371951219512 0  1.749222215368287 0.1025 0  1.275777784631713 0.1025 0  2.2 0.1025 0  1.225938124459196 0.3075 0  1.550777784631713 0.1025 0  1.44375 0.07430640243902442 0  1.16875 0.07430640243902437 0  0.3528655045338512 0.2063263890916129 0  0.5890337614812103 0.08775733857679162 0  0.8504912436891263 0.190072835691683 0  1.899250267340833 0.2229966846119207 0  0.1020898364287272 0.3140258291809757 0  1.766482954545455 0.2934032012195123 0  1.051658316544432 0.2265720188842194 0  0.2 0.3400647632937836 0  1.421109702350723 0.2261157654379721 0  0.4812500000000001 0.41 0  0.4324401666997539 0.3216425986889796 0  0.098916018031319 0.09171660955420841 0  0.9508742791313441 0.2921736960864468 0  2.13125 0 0  2.118919042110979 0.3422084711244843 0  1.30625 0.41 0  0.20625 0 0  1.597888256393107 0.2173787389261347 0  0.4812500000000001 0 0  0.4324082967851086 0.08384041677422771 0  1.829299675393195 0.07400700849299596 0  0.568219932524165 0.3212274660843853 0  1.71875 0.41 0  0.268005226542646 0.08512186835670006 0  1.16875 0.41 0  2.038220665644273 0.332420740103091 0  0.6678017527842831 0.07701763866051195 0  0.89375 0.41 0  0.5111435174287687 0.07335351331957608 0  0.176193934632343 0.0734896648625108 0  0.07390688010811153 0.1697064032433452 0  0.05452951551825875 0.25625 0  0.61875 0.41 0  1.452769549894695 0.1548122580621249 0  1.369219062229598 0.07430640243902442 0  1.30625 0 0  1.720943423819132 0.1714577452753128 0  1.157188124459196 0.205 0  1.094219062229598 0.07430640243902437 0  1.304056576180868 0.1714577452753128 0  1.67579304192913 0.07430640243902437 0  0.2672907219039591 0.3037570723459566 0  1.209670467133757 0.1362100266964769 0  1.58125 0 0  1.03125 0 0  0.06875000000000001 0.41 0  0 0.35875 0  1.58125 0.41 0  1.631724228912893 0.3381867502687533 0  0.8240147050827157 0.1225233169495944 0  1.825608881788174 0.14499488549201 0  1.85625 0 0  1.44375 0 0  1.44375 0.41 0  1.85625 0.41 0  2.13125 0.41 0  0.7562500000000001 0.41 0  0.7562500000000001 0 0  0.89375 0 0  0.34375 0 0  0.34375 0.41 0  0.20625 0.41 0  0.06875000000000001 0 0  1.16875 0 0  1.03125 0.41 0  0.61875 0 0  1.71875 0 0  1.99375 0 0  1.99375 0.41 0  0.3972301426712326 0.2593842555611471 0  1.340625 0.3489494290853124 0  1.134375 0.3489494290853123 0  1.700180620188976 0.3438659752031281 0  0.5003922072260507 0.341765274319271 0  0.6212513815748759 0.2209216137134851 0  0.6885607720119526 0.215393731583638 0  1.033412357328477 0.1612902025713047 0  2.135782184673599 0.07126652247502523 0  1.668441847249787 0.2129203728327609 0  1.295782514339747 0.2378437748815763 0  1.409375 0.3520314716057996 0  2.129248544730567 0.1906135162504124 0  2.060771381434487 0.1989445750470348 0  2.013252586573865 0.1496169464686054 0  1.942766402200229 0.1734448904596831 0  1.895522487186454 0.06076163953489683 0  2.069553871656643 0.06605731020975725 0  0.9281250000000001 0.3539050257418612 0  1.274680914880868 0.3520219391081363 0  0.3030138498135347 0.2488370856812789 0  0.8223773249563684 0.341761430177996 0  0.9018164060227267 0.2326477848736739 0  0.8143027982392851 0.2440265179987191 0  0.7225087161029304 0.2699907246386231 0  1.614713220494657 0.09473434380863296 0  0.378125 0.3566194660323104 0  0.309375 0.3566194660323104 0  1.72990325744076 0.2380068107952482 0  0.6915936999299305 0.3429472631234433 0  0.6268087624932918 0.3466455500035671 0  1.356580098625191 0.2120393231351682 0  0.3060160055995138 0.1590148921620778 0  0.3954648733249218 0.156380553890791 0  2.034370752044885 0.2668681600792073 0  1.51768709249349 0.3426260931494756 0  1.561883724969884 0.1650446847858835 0  1.197344062229598 0.2523725417393646 0  0.9281250000000001 0.05124999999999999 0  1.804085235518364 0.3468178408964637 0  1.817887819205233 0.2589243285818559 0  0.9107805776841645 0.1653834539923287 0  1.905897727272727 0.3485060975609756 0  0 0.05125 0  0.844212276491354 0.0614201194265309 0  0.378125 0.05244637078450034 0  1.008571329007178 0.2705955969954818 0  0.7724048032149464 0.1559079561351474 0  0.7203054377831548 0.04941826955193545 0  1.192836486056382 0.3562350748565544 0  0.5967108020713719 0.1479294686523888 0  1.28257088594801 0.2944411014911587 0  0.7041890234548132 0.1222025174424443 0  1.474860187679412 0.2504218616229368 0  1.406767003493824 0.2829282258560709 0  0.3201325899091991 0.05890121548989159 0  0.5979220912872258 0.2727591995766724 0  1.845656689180403 0.1998310418452388 0  2.144958525570388 0.2909790873294231 0  2.2 0.15375 0  1.57794966442982 0.3540357145964566 0  0.9483181579620558 0.1214693369582054 0  0.0496154796471391 0.333125 0  1.508991196088596 0.1421783375065625 0  0.09776612425612034 0.2204896805326566 0  1.50436820029908 0.06143401634903343 0  1.223857000523521 0.0823554862453532 0  0.2531953886959507 0.3582003209055908 0  1.153316824384777 0.1289850171317837 0  2.148922302309752 0.1258841779285271 0  1.621993280276081 0.2841214267927899 0  1.550118654119087 0.2461998729100966 0  1.327182649291491 0.1216967252533594 0  1.753125 0.04556020050186112 0  1.271875 0.04556020050186116 0  0.9824282234771738 0.05051969257615314 0  1.039510847866381 0.05683351822678641 0  1.94956388244759 0.1180512551534177 0  1.949997712993411 0.04965831614304109 0  1.771961817615021 0.1530278789497521 0  1.909246823951428 0.2812757146784527 0  1.101974016627944 0.2038045618205013 0  0.7906250000000001 0.0444674049654372 0  1.948575539857022 0.2445328248721197 0  1.697271520964565 0.1233917627620729 0  1.065625 0.3689344961371042 0  1.085849084308977 0.3170853572226867 0  0.9840604787624379 0.3582077516409966 0  1.577403511714593 0.05463601888079143 0  0.05622663515370135 0.05493816910862376 0  0.8762396958822678 0.3392249777398821 0  1.751571320346033 0.3651102912045228 0  1.055327852410105 0.111864799513911 0  0.1583785085108421 0.2994699345738728 0  0.1455283439499995 0.3542795598723423 0  2.2 0.35875 0  0.225705107073232 0.05084786997482401 0  0.1455852234589313 0.1166494778469164 0  1.466879772203159 0.3611261772912453 0  1.990280163552011 0.3564754268533217 0  1.17471064520912 0.2990917256188288 0  0.7221925551074015 0.1739659241003985 0  0 0.25625 0  2.2 0.25625 0  2.2 0.05125 0  0 0.15375 0  1.853978576207987 0.35875 0  0.21965520498276 0.1015543880164422 0  1.515638456102889 0.2882700110184686 0  0.09048297387599738 0.3637717362208066 0  2.150453692751374 0.2387066338105111 0  1.323782677156475 0.04897634338873398 0  1.409375 0.03715320121951221 0  1.406484531114799 0.1087852750766809 0  1.134375 0.03715320121951218 0  1.627401732573545 0.04552157221025036 0  0.446875 0.3713289093361426 0  2.045405893604797 0.1105340662939892 0  1.255408269734577 0.1577307500159216 0  2.028125 0.03707597992059326 0  0.04420832937638274 0.128125 0  0.5817551710628505 0.3702615006034757 0  0.1197849154434487 0.2663398672460083 0  1.248258025468107 0.2565907092181813 0  0.1300647302703173 0.0508462728378621 0  0.7738123537510222 0.2761231499240648 0  1.203125 0.0366132337404304 0  0.5444207041612499 0.111205399508622 0  0.8016457771828226 0.1964238426015905 0  2.072662025974815 0.2975086504196739 0  0.4019040438866802 0.2103993403217561 0  0.4677372330974851 0.04827477407630658 0  0.8677218578847617 0.1432970430140788 0  1.058011122005847 0.2758866204059919 0  0.4429405887974043 0.2746184809910084 0  0.5843750000000001 0.03726989681835222 0  0.6318596133730142 0.1128692182767254 0  0.4862628454464408 0.2957029785303028 0  0.7805186758662764 0.3673578380827891 0  1.887722846421017 0.1760882698830035 0  0.3498893058880703 0.256189258793856 0  1.472640588990488 0.1118278026240017 0  1.865937103925594 0.2604137786483804 0
[...]
<PointData  Scalars="f_43"> 
<DataArray  type="Float64"  Name="f_43"  format="ascii">6.5318047748464725e-01  6.7542002943813573e-01  4.1629486283108081e-10  6.0886610648274452e-11  -1.0293899003224907e-01  -3.8169290112668376e-02  -1.1949630882725078e-01  -2.7057342728460498e-01  -7.0160420548275138e-01  1.0835031292063346e+00  2.2252726578333895e+00  6.4560136678267166e-01  -8.9425900387484036e-01  -2.3325526274228633e-01  -1.6555508117593093e-01  -1.5484143096201586e-01  -1.6989767817985582e-01  -4.2321011171688439e-01  -2.2020694316422187e-02  6.2367512172762241e-01  2.7900947218995131e-01  5.7210217178996092e-01  2.1177770808592644e-01  -6.3222556275718100e-01  1.8983100532891453e-01  9.9335540060578154e-01  1.8746726837403369e-01  -9.0184714059004818e-04  -5.9139513199578560e-03  1.8570130771355964e-01  2.1621658548775508e-01  9.4390004206253833e-02  9.4500912611745286e-02  1.4118576211404207e-01  1.4079819753224299e-01  4.6553804263732221e-02  4.6799637220997559e-02  1.5193729067742121e-01  1.5406343072115741e-01  1.1760944208427493e-01  7.0572311527808768e-02  2.1429087697758648e-01  1.6460590020344359e-01  -5.8987771773039115e-11  3.1824112026686641e-01  3.5251854446233931e-02  2.2901878650651332e-02  3.4975929670222478e-02  2.4334594450383648e-02  -6.1073267934675641e-10  3.9587802784990946e-02  7.1094858062413974e-02  1.4120691688070838e-01  1.1771351751441569e-01  7.1067006671430691e-02  1.1842447138934398e-01  2.0864465846576005e-01  2.0382985114900040e-01  -3.9702492756703962e-02  5.8928099287109481e-01  5.7576659899615990e-01  -2.3808074503020936e-02  1.6495534472816348e-01  1.8829253604595114e-01  1.6457997404289992e-01  9.4080717627124985e-02  1.8308856588071484e-01  8.9550011907683746e-02  1.4564244963662928e-01  -1.6113294150910132e-01  5.2171643479610834e-02  1.8279631223152831e-02  5.8752819742145017e-02  2.2011216611451409e-01  2.1561613923524112e-01  -2.3815908800410382e-01  7.5012845431080366e-01  7.7681370692830587e-01  -1.1082864588092180e-01  1.5101380092304503e-01  -2.4271511717480468e-01  1.7217587169274108e-02  2.0419305537413326e-01  3.5305574499212379e-02  1.2652243144584113e-01  1.0794183106923406e-01  1.9772788681912681e-01  1.3223891982163385e-01  4.1236327611310922e-02  7.7089026793619772e-02  1.5824667851663038e-01  -4.6183390984963107e-10  1.6643889313810864e-01  1.1108359403640722e-01  1.2938335581751684e-01  1.7671930552503604e-01  -3.7447188621806310e-01  -8.8298022575319560e-02  2.6307227569572933e-01  5.1410474626144037e-02  6.9475307708873535e-01  7.4172670518781236e-02  1.9621894441349011e-01  3.7632960806191879e-01  1.3320677876309167e-01  -3.0415377956437159e-02  1.1694611153269620e-02  7.1483213592604189e-01  2.0972772949935159e-01  1.1477050651558265e-02  1.3746294904409227e-02  1.5263760781154651e-01  4.0530997629607995e-01  1.0300631481948420e-01  -3.0722915519549227e-02  2.7089863884308927e-02  6.3488372633692475e-02  -7.5296008194732852e-02  8.1947466434026839e-02  3.3197126859046487e-02  1.7590519793305279e-01  2.7724120526126553e-02  -5.9873584711287132e-03  1.9510896151852772e-01  -4.3959825586910299e-02  4.3283915731393391e-01  1.1243372584309896e+00  9.5086954429152692e-01  1.1850177881299202e-02  1.2785504951393836e-01  1.4230652887800968e-01  1.5326129675807529e-01  8.1935109924219998e-02  1.7826973751439198e-01  1.8969321862202235e-01  1.5330256366902151e-01  8.9634328112997957e-02  9.6022573364751961e-03  1.6949144003846170e-01  1.0615914835499916e-01  2.0025365079487026e-01  6.4086235314813511e-01  6.6545584544525238e-01  1.0569878771609223e-01  9.7359833815771249e-02  2.2881638103201629e-01  6.4030433901418174e-02  5.8396022503594887e-02  1.2925770594521707e-01  1.2890858276279518e-01  5.8254930835510678e-02  1.1822066177076587e-02  8.5900496127367706e-02  8.2458259373437245e-02  2.0216459722975763e-01  2.3198675881539649e-02  5.9541259604301310e-02  4.1505225980356381e-01  6.6085307798512538e-01  1.7657924897167065e-01  1.9780579471367740e-01  1.6001126300416498e-02  8.2436893655850468e-02  3.5284098479142594e-02  3.4730931776642666e-02  -1.8313809834286085e-01  1.4675292404116544e-01  1.8171634975644158e-01  8.5487806464844121e-02  -4.1666156821503819e-02  -3.2645608149772032e-01  1.8677862677517771e-02  1.9986348337892804e-01  1.0976274841453443e-02  9.0940392978715548e-02  1.5464381647439493e-01  1.3506445923951105e-01  1.2083028774058121e-02  2.3792287911073288e-02  3.1885381963497904e-02  4.3958028906850195e-02  5.1882348239171552e-02  2.2201519847634660e-02  2.0396482553984990e-01  1.5822075987768394e-01  -2.8429686024202322e-01  1.7121338680327475e-01  2.3079867510390653e-01  2.6719091219781899e-01  1.3255998853338383e-01  1.0015313178013482e-01  -6.4876283159761823e-03  9.2347996958459549e-02  8.0429658200743284e-02  4.1119849919495147e-02  -1.8588264730825556e-02  1.4427790665872997e-01  -3.3726258105992302e-01  -1.8056496558721175e-01  2.8324681151371649e-02  1.1671507745914257e-01  1.0917487120382242e-01  1.7133521059913495e-01  2.0868109055658537e-01  6.7811707731108090e-02  6.5346035037513309e-02  2.2762258218735648e-01  5.0149640206521393e-02  6.8856242073933827e-01  1.8285016612424151e-01  -3.0859602173212850e-02  2.0260545511122746e-01  2.7175719650232122e-01  6.5746716121551044e-02  1.7220211254318532e-01  -2.3874574389376813e-01  1.5683979186360317e-01  5.8463231388477838e-02  1.2402570635732790e-01  1.3563356342851818e-01  2.3707529440327918e-02  -2.2436118615198089e-01  6.0597492307645905e-02  9.3933202923426364e-03  8.6317851343309370e-11  1.0642269020026930e-01  2.1325018766676648e-01  6.8918226116166026e-01  1.1820227791679225e-01  1.3480131693924711e+00  1.1900965448813255e-01  1.6712544362513690e-01  2.3687486640334540e-01  1.7916436871688529e-01  8.7053562899001360e-03  9.8912812742314449e-02  1.1116977662736292e-01  1.4941520286266946e-01  7.6481187437962936e-02  1.5904340419132199e-01  2.0690070260303631e-01  1.9880997413750612e-01  4.2793597742124739e-02  4.2632899593685443e-02  7.3220467709620610e-02  4.9703765281672051e-02  1.8769177848528629e-01  1.2556872097430302e-01  4.2996498179575030e-02  8.6006997269149663e-02  1.9248148730855050e-01  1.8955422850664028e-01  2.0310135466487858e-01  1.0641849794381092e-01  6.8172469738456520e-01  1.9719777498307114e-01  7.6629582269344451e-02  1.9596395973326342e-01  4.6672261749328542e-01  5.5128481021177533e-01  -1.6777526175340394e-09  3.0498799226651652e-01  5.6160994033895884e-01  1.2526733754291922e-01  3.6117512248590458e-02  1.7507210989579819e-01  2.0481472763379294e-01  9.0089520951081115e-01  -6.1073267934675641e-10  -1.3589587104428815e-09  9.2268540364727625e-01  5.9119193310280253e-02  7.8563980409916911e-02  1.1706049633616976e-01  6.3228449471459502e-01  8.4594469457535178e-03  1.5010145887923790e-01  1.3543599436446457e-01  1.3586127287427083e-01  1.8285026518092409e-01  9.8082997129059601e-02  -3.4788518244083563e-02  2.6378141040474340e-02  1.6164304800545581e-01  2.9320491676716007e-02  8.6474079568925932e-01  -7.0968746925928802e-03  9.0112250169275732e-01  1.6269602740182046e-01  5.9619569977960707e-01  2.1626560073759524e-01  1.7065930654011058e-01  -1.3509362645465114e-01  3.0631307431093252e-01  2.1759343706514538e-02  -1.7775486050625795e-02  -3.0114366210145786e-02  2.3568602150063533e-01  1.9439950561819830e-01  2.4998373936044971e-01  -2.3690938387388961e-03  -1.5487044436977315e-01  8.2039394482399299e-03  1.1512583598506715e-01  5.3390985284106358e-02  -4.4363099507332426e-01  1.2439373274092423e-01  5.7111930603082554e-02  2.0776302260447907e-01  1.2591865431953728e-01  1.0593925860049419e-01  1.4072010006302671e-01  6.0695964830351709e-02  2.2285290833141585e-03  7.4764482269146573e-02  2.0407789049355915e-01  2.7747790370162456e-01  6.0561876966204582e-02  8.1766965916497014e-02  -1.7589345024982775e-01  -6.6922056138384811e-02  7.2877495751985003e-02  1.6215006650088046e-02  1.3764901438912877e-01  2.1677358151073639e-01  2.9679234309150090e-02  -2.6651800723100377e-01  -1.4350657732468183e-01  1.0213680628828069e-01  -4.9320948062841230e-01  1.1301892056640657e+00  6.6351843569055630e-02  1.0690233136214149e+00  3.5847030664913120e-02  2.4675696760612920e-01  2.1142407449045936e-01  6.3893820523234198e-03  1.7837970651533520e-02  2.1244622866592823e-02  2.0340899205594012e-01  2.1092885923834831e-01  9.9899830160277550e-02  2.8920043333457848e-02  -7.4813099180264311e-02  6.9546950855459561e-02  1.7947532652747597e-01  3.3174411752893013e-02  1.3975771948372023e-01  1.7150008507744935e-01  1.2284314256625417e-01  9.7267399856040784e-02  -1.9688380133097573e-02  -3.8453007426265985e-02  1.1150410302166082e-01  8.7719833499511068e-02  8.4161051201664797e-02  6.6345115083201855e-03  6.9353428132377494e-03  6.5066752274230033e-01  -2.4007097455300344e-01  1.4463227357932970e-01  9.6707889185993490e-02  6.9069691957689708e-02  5.6844512861225181e-02  1.7795066463101988e-01  1.1128861019388672e-01  4.3596860360317131e-02  2.0238906173281004e-01  1.8926177971697133e-01  6.4560577941553676e-02  7.9352169156409275e-02  5.0856580556349573e-01  9.2063843276014953e-02  -1.4449474168092729e-02  -1.5187597910600321e-02  1.9320903659346120e-01  5.0688914971469889e-01  2.4472004752088401e-02  1.9870903317463173e-01  1.1057940692054914e-01  -8.2494689117146039e-02  1.6511655742388087e-01  1.8068038538390681e-02  1.2500695863622796e-01  1.0440250035167881e-01  -2.2274369457062723e-01  -6.9222390026917283e-02  1.9322150289988466e-01  1.8306688819253480e-01  1.7849459484376307e-01  1.8298354629261579e-01  2.1618935873719619e-01  6.6879239256883412e-03  6.3619340843746019e-01  1.5029339333566902e-01  3.7168921794197694e-02  -9.5159128998266576e-02  8.6854926414917585e-02  3.6108249150064824e-02  -8.1192936332080579e-02  5.2368103686682405e-02  1.8362626941640275e-01  5.8562267883252507e-02  5.2719614454557299e-02  4.6344645174609449e-02  2.0896050071580671e-01  1.1788120067529848e-01  8.3347716390535648e-02  9.1411656899735488e-02  9.3576251021502896e-02  6.7273014324587777e-01  6.5358282309711124e-01  2.7797736179657424e-02  1.3445771477504392e-01  1.7514717462733601e-01  9.6831498757797230e-02  2.6913962739528124e-01  2.1849906137323324e-01  7.8667389063864901e-01  -2.9896840447777617e-01  9.1650632868994264e-01  -2.7740767049775166e-02  7.2132080927836045e-02  1.8453660257342458e-01  2.0550639849040220e-01  -2.2386209703012547e-01  1.2156238074509036e-01  9.8757858423149592e-01  3.6868382464387631e-02  2.8611319377693002e-02  1.2931464481897731e-01  4.7762701343115471e-01  1.1757080607309470e-01  8.2648199905561470e-01  1.1458712980891890e-01  8.3477080610545984e-02  7.7418408182026541e-02  1.5776789655747217e-01  7.9974046815564415e-02  1.5531746516338094e-01  1.4227829004476658e-01  1.4389394311623138e-01  1.8964650944637679e-01  8.7966777632971324e-02  1.4742415322252453e-01  -1.7446412833871208e-01  3.8634118448057087e-02  -2.8442109189154763e-01  2.3114439324807268e-02  1.7247322623124620e-01  1.6360703255295400e-01  7.5082928079020606e-01  1.0229506911016137e-01  9.1134514800750327e-02  4.4499835747560257e-01  6.5609455866619959e-01  2.0214265696916489e-01  7.1940128511034507e-01  9.8145571011275107e-02  2.1670930800156007e-01  1.0342466849193215e-01  -2.5172174086999018e-02  1.1451233652960845e-01  6.5059924539548245e-02  -8.9962488032959267e-02  1.9739825226890845e-01  2.3407226261809869e-02  2.9548741475911546e-02  1.5217811618725630e-01  1.5601582381769877e-02  2.1233852301240461e-01  1.4158561583621420e-02  6.2763776366288127e-03  7.3238955962742824e-02  1.1222265944146784e-01  -1.4169498709739226e-01  1.3560297475064650e-01  1.8752132195605656e-01  6.0064777032204086e-03  1.3597074435553405e-02  4.1551239368704238e-02  1.5489215114804300e-02  1.7038295011468710e-01  5.8414652265088997e-02  6.8046144967002384e-02  2.1276033697684429e-01  -1.6872278327811935e-02  -3.3208617233652919e-02  2.9387784302266057e-01  1.7377097402359898e-01  8.5363688513389699e-02  -1.9027315885141779e-02  -2.3269787714704726e-02  1.5897065506977155e+00  2.0308931135763805e-01  3.7147445255281486e-01  1.7749809900301042e-01  1.8169252003209302e-01  1.5235503358604646e-01  1.4673645715618247e-01  1.4100668623444002e-01  1.8065861708919975e-01  1.3140536801823008e-01  1.3352798822932131e-02  1.7110319684082931e-01  1.7467425706221520e-01  -4.3284033239114297e-02  5.9145919238053464e-02  -1.7118540299284948e-01  -9.4544740209290726e-02  1.6477173471468601e-01  2.3742937670441652e-01  -3.6077991630146250e-01  1.3482021664941618e-01  8.8846249613019332e-02  3.5336107951097796e-02  2.9207868303279535e-02  4.1013436053929889e-02  1.5833036175855350e-01  -5.8700155806124234e-02  1.8436826154414898e-01  1.8875588145800490e-01  1.8296161425232543e-01  1.7646298471204500e-01  1.4732144987638915e-01  5.4227962609200353e-03  1.8118380135636387e-02  1.3545111896140624e-01  1.2355724646511411e-01  7.6535948684466809e-02  1.9228134743648800e-01  7.6075641153247886e-02  5.6807708053731046e-02  2.0866179176316788e-01  2.0441001946911008e-01  1.3562652068715950e-01  1.8243150808729341e-01  5.2322346187157190e-03  1.9520922371370902e-01  -3.4676712029154795e-02  -1.8111007319195325e-02  7.9997442799758754e-03  6.1736798965792394e-01  3.1691136970223321e-01  1.1933166983546126e-01  3.9035469609786074e-03  1.0467735759400428e-03  1.1718853365408254e-01  1.2528027069150358e-01  4.7889692873386458e-02  -6.2757132822234447e-03  2.3272190638909514e-02  1.7087173673901301e-01  9.9662526924442926e-02  4.1960343375088235e-02  1.5891932717121596e-01  2.9199259203093721e-02  4.1667592215349950e-02  2.0563149520763371e-01  8.2525182942002062e-02  7.2080122357652881e-03  3.2360937706009764e-02  2.1969644858410017e-01  2.2742407370063292e-01  2.4335061988203727e-01  1.3023981546108818e-01  1.7705313875984394e-01  1.4403275032485713e-01  2.0072713766293496e-01  -2.6776165581482264e-01  -3.2685095832638322e-01  -1.4741294299276227e-02  2.0112903023471493e-01  1.4809640325613926e-01  1.5180415738979150e-01  2.0534138346291692e-01  6.1242866585032074e-01  1.7612367216537106e-01  1.1320073442384010e-01  1.2071049886319943e-01  2.4566663587832530e-01  4.9583088407402193e-02  5.2707604617762849e-01  1.2963063201641961e-01  1.3202162869889539e-01  8.5317570731182846e-02  5.2530048694586447e-02  1.9472070912484701e-01  4.9952582788351609e-02  8.4420807465617670e-02  1.1865649751120666e-01  6.3503314921453488e-02  9.0985827793532870e-02  1.5164731135453918e-01  -4.2178050142404021e-03  4.6891563963166606e-02  1.2070380380395944e-01  9.6457073579836994e-01  -5.8901671708723999e-02  2.2765287521799515e-01  1.0274486747404556e-01  5.9367380938619568e-03  1.8869326411366949e-01  2.3542431071474166e-02  1.9200531270814902e-02  1.4311015665052579e-01  1.0309199463490746e+00  1.6315853381875328e-01  1.9828104293900889e-01  4.7109906551106043e-02  4.8811802174498146e-02  5.9528130825748571e-01  1.9429838061583622e-02  5.4459851179175600e-01  2.0437860400566008e-01  2.7435695803283085e-02  -3.7001448520981639e-01  -3.0691311919324687e-01  6.7685098966270826e-02  -3.9880896384892078e-01  2.1079221510892027e-01  6.2622112743734790e-02  8.5988478209964539e-02  6.1097565782424951e-02  4.0805162474566677e-02  2.2416201351846790e-01  5.4224221895975986e-03  2.7888681896796397e-01  3.0047660310990876e-01  1.0781896845579587e-01  -1.8888059940689844e-02  1.0579534232514504e-01  9.5375645531278530e-02  4.9708714389615660e-02  1.5454501845318155e-01  1.1559698037343730e-01  1.5723534075764375e-01  2.4237377903206503e-01  2.0923942016698913e-01  1.0879075461478840e-01  -1.5139357226536942e-01  1.4947982167034099e-02  -4.2638219774220221e-02  1.0329645652131987e-01  8.0393767465860122e-01  1.1408473174238273e-01  1.8511856374546481e-01  5.5026748168469128e-02  1.4681603788265205e-01  -8.7863320038606627e-02  5.5465990618291376e-02  -4.1539276222522564e-01  1.8463109233391906e-01  4.0996211187291588e-03  -2.9486017452711202e-02  -2.8883237680615594e-02  4.4431139938332739e-02  1.6620365780567201e-01  1.0877743158582182e-01  6.6514822187461978e-02  1.7126454943383718e-01  1.3446785505752934e-01  1.3552174096060088e+00  7.7490499629876933e-02  2.3789673711532378e-01  -1.6274208184738811e-01  1.6084822738873736e-01  1.6727374311703461e-01  9.1922662757560655e-02  1.2406926381769458e-01  6.9520807895035341e-02  6.2182421686331341e-02  1.8227820397039372e-02  1.2011424696518835e-01  3.9078487654543678e-02  2.1009108583871089e-01  2.0486430319794033e-01  6.7583268824703047e-01  6.7410840329722965e-01  1.1284957393624498e-01  -1.4166691239780393e-01  5.1373944455361496e-02  2.0658668444642631e-01  1.9979699179133853e-01  1.9995333711036786e-01  1.5519990258712729e-01  2.4339304262576875e-01  8.3299596248405205e-01  3.2171065446232294e-01  1.1142520487769315e-01  3.0303388275208415e-01  4.7205146504869266e-01  1.2146368009368926e-01  3.7516640422586595e-02  1.4635835616059614e-01  -1.5096326264302329e-01  -2.7905742575241277e-01  -3.9625650114572813e-01  1.6158270445540079e-01  6.1951075824720730e-02  -1.9975462320123336e-01  6.5820740248509346e-01  9.7846526921983723e-01  1.6996809122446097e-02  6.2034843940083621e-02  6.3667380674806165e-02  1.6681610983830542e-01  9.7619228275431957e-02  5.4904330106587199e-02  -5.8987771773039115e-11  7.7788298894599497e-02  9.4426973400627320e-02  5.9032939343228825e-03  -5.2484150139794024e-02  -2.7449711337884597e-01  2.3203788358500423e-02  4.1940625708254436e-02  6.1792307364889398e-01  6.0450256336338604e-01  5.1977067748556802e-02  1.3814842640415204e-01  1.2805283909687523e-01  1.2435441282376931e-01  1.2078768714978334e-01  1.3019632043084689e-01  5.6239957894733482e-02  -3.3278092111956273e-02  1.4055747503315241e-01  1.3350634897882691e-01  1.9433639940361636e-01  1.9309035212127010e-01  1.6257525218925942e-01  -1.1501328710702181e-01  5.5436869002119034e-02  3.5943935492729270e-02  2.3355084724763689e-01  -4.6183390984963107e-10  1.6217490245125873e-01  1.5757023295438702e-01  1.5742125097573750e-01  8.4397636770711555e-03  8.0420456951508207e-02  1.8797259253189719e-01  1.8492386931059621e-01  2.1943659633022572e-01  2.0840487464921445e-01  2.1574513566123105e-01  3.3030202430004742e-02  1.9965949552017073e-01  1.9490531292032051e-01  2.0337296119167267e-01  1.2306091123823794e-01  9.5977671428433692e-02  2.0823625741380286e-01  6.1180927630915505e-01  1.9786491642989723e-01  7.3557353358424449e-02  1.9918106718950948e-01  1.0853999281778087e-02  1.1927980597399086e-02  4.9562329602161571e-03  -1.6677106810009178e-02  5.6047712840921395e-02  3.6394297975231783e-02  1.7458617148241476e-01  -1.5971508013103247e-01  1.5444729728385800e-01  7.9465438539613548e-02  7.2990548741364902e-02  -3.1260321877346266e-02  -4.2422104389731388e-02  1.0392228052350695e-01  -2.1424529646606402e-01  -2.9841790461831397e-01  -1.3933130357814619e-01  1.7427500516037736e-01  1.7737953323995301e-01  1.4756154129569782e-01  -1.8804279077357050e-01  1.6799794420194372e-01  4.8771700986702866e-02  1.5654201358734587e-01  5.4505683175255470e-01  2.5633313081632808e-01  1.8400611990333710e-01  1.0302795729281485e-01  -5.8987771773039115e-11  1.3040339372066769e+00  1.1064953872250611e+00  2.0039456913344236e-01  2.0278961306940865e-01  4.9306480505365555e-02  1.0674109826026013e-01  1.0146825365122768e-01  7.8553074344648657e-02  4.7784832595742267e-02  -6.0842334828726724e-02  7.5102785075124312e-01  6.9619523409804718e-01  7.0130116410617471e-01  4.4282083735953721e-02  1.8873079513694088e-02  1.1478904633795974e-01  1.0872654438497946e-01  1.0685650564160266e-01  1.4568149477031983e-01  7.5013434036145843e-01  1.7174479949701579e-01  -1.1284130964987174e-01  9.9548731938950627e-02  6.5647354565120400e-02  7.1925027022178789e-02  4.7258630028464664e-02  4.5250948648669805e-02  -4.5986906336645227e-02  8.0920529265723448e-02  -3.5426422431055822e-02  7.5388406052448773e-02  1.7318499554792191e-01  1.3152319846885330e-01  1.9274420865793912e-01  1.8774740983308416e-01  1.7826667718845732e-01  5.5158251627447974e-02  1.60249015