<?xml version="1.0"?>
<VTKFile type="UnstructuredGrid"  version="0.1"  >
<UnstructuredGrid>
<Piece  NumberOfPoints="2426" NumberOfCells="4534">
<Points>
<DataArray  type="Float64"  NumberOfComponents="3"  format="ascii">0 0.41 0  0 0 0  2.2 0 0  2.2 0.41 0  0.2404508497187474 0.2293892626146237 0  0.25 0.2 0  0.2404508497187474 0.1706107373853764 0  0.2154508497187474 0.1524471741852423 0  0.1845491502812526 0.1524471741852423 0  0.1595491502812526 0.1706107373853764 0  0.15 0.2 0  0.1595491502812526 0.2293892626146237 0  0.1845491502812527 0.2475528258147577 0  0.2154508497187474 0.2475528258147577 0  0.5404508497187474 0.2293892626146237 0  0.55 0.2 0  0.5404508497187474 0.1706107373853764 0  0.5154508497187473 0.1524471741852423 0  0.4845491502812526 0.1524471741852423 0  0.4595491502812526 0.1706107373853764 0  0.45 0.2 0  0.4595491502812526 0.2293892626146237 0  0.4845491502812526 0.2475528258147577 0  0.5154508497187473 0.2475528258147577 0  1.1 0 0  0 0.205 0  1.1 0.41 0  0.55 0 0  0.55 0.41 0  0.275 0 0  0.275 0.41 0  1.65 0.41 0  1.65 0 0  1.375 0 0  1.375 0.41 0  1.925 0 0  1.925 0.41 0  0.8250000000000001 0.41 0  0.8250000000000001 0 0  1.5125 0.205 0  1.7875 0.205 0  0.9625000000000001 0.205 0  1.2375 0.205 0  2.2 0.205 0  0.7560964076246335 0.2151713709677419 0  1.99375 0.2152743902439024 0  2.0625 0 0  0.6875 0 0  2.0625 0.41 0  2.2 0.3075 0  0.6875 0.41 0  1.7875 0.41 0  1.375 0.1486128048780488 0  1.5125 0 0  1.7875 0 0  1.5125 0.41 0  0.9625000000000001 0 0  0.9625000000000001 0.41 0  0.4125 0 0  0.1375 0 0  0.1375 0.41 0  0.4125 0.41 0  1.2375 0 0  1.1 0.1486128048780487 0  1.2375 0.41 0  1.65 0.1486128048780487 0  1.126715909090909 0.2793064024390244 0  1.676715909090909 0.2793064024390244 0  1.348284090909091 0.2793064024390244 0  0.34375 0.3032389320646208 0  1.894702181800738 0.1282910975492754 0  2.092797818199262 0.1282910975492754 0  1.85625 0.3075 0  0.8630851210521902 0.286932093388664 0  0.89375 0.1025 0  0.35 0.1090282786671641 0  0 0.3075 0  0 0.1025 0  0.6526217841291382 0.288229645480046 0  0.7562500000000001 0.09660248895515888 0  0.6568633732316684 0.1557582854763441 0  2.099172119769978 0.25625 0  1.002356446954348 0.1010393851523063 0  1.99375 0.08395950269330846 0  1.459960956013612 0.3075 0  1.569025960719943 0.2986889805672169 0  1.03125 0.3278689922742084 0  0.75625 0.3247156761655783 0  1.959375 0.3126371951219512 0  1.749222215368287 0.1025 0  1.275777784631713 0.1025 0  2.2 0.1025 0  1.225938124459196 0.3075 0  1.550777784631713 0.1025 0  1.44375 0.07430640243902442 0  1.16875 0.07430640243902437 0  0.3528655045338512 0.2063263890916129 0  0.5890337614812103 0.08775733857679162 0  0.8504912436891263 0.190072835691683 0  1.899250267340833 0.2229966846119207 0  0.1020898364287272 0.3140258291809757 0  1.766482954545455 0.2934032012195123 0  1.051658316544432 0.2265720188842194 0  0.2 0.3400647632937836 0  1.421109702350723 0.2261157654379721 0  0.4812500000000001 0.41 0  0.4324401666997539 0.3216425986889796 0  0.098916018031319 0.09171660955420841 0  0.9508742791313441 0.2921736960864468 0  2.13125 0 0  2.118919042110979 0.3422084711244843 0  1.30625 0.41 0  0.20625 0 0  1.597888256393107 0.2173787389261347 0  0.4812500000000001 0 0  0.4324082967851086 0.08384041677422771 0  1.829299675393195 0.07400700849299596 0  0.568219932524165 0.3212274660843853 0  1.71875 0.41 0  0.268005226542646 0.08512186835670006 0  1.16875 0.41 0  2.038220665644273 0.332420740103091 0  0.6678017527842831 0.07701763866051195 0  0.89375 0.41 0  0.5111435174287687 0.07335351331957608 0  0.176193934632343 0.0734896648625108 0  0.07390688010811153 0.1697064032433452 0  0.05452951551825875 0.25625 0  0.61875 0.41 0  1.452769549894695 0.1548122580621249 0  1.369219062229598 0.07430640243902442 0  1.30625 0 0  1.720943423819132 0.1714577452753128 0  1.157188124459196 0.205 0  1.094219062229598 0.07430640243902437 0  1.304056576180868 0.1714577452753128 0  1.67579304192913 0.07430640243902437 0  0.2672907219039591 0.3037570723459566 0  1.209670467133757 0.1362100266964769 0  1.58125 0 0  1.03125 0 0  0.06875000000000001 0.41 0  0 0.35875 0  1.58125 0.41 0  1.631724228912893 0.3381867502687533 0  0.8240147050827157 0.1225233169495944 0  1.825608881788174 0.14499488549201 0  1.85625 0 0  1.44375 0 0  1.44375 0.41 0  1.85625 0.41 0  2.13125 0.41 0  0.7562500000000001 0.41 0  0.7562500000000001 0 0  0.89375 0 0  0.34375 0 0  0.34375 0.41 0  0.20625 0.41 0  0.06875000000000001 0 0  1.16875 0 0  1.03125 0.41 0  0.61875 0 0  1.71875 0 0  1.99375 0 0  1.99375 0.41 0  0.3972301426712326 0.2593842555611471 0  1.340625 0.3489494290853124 0  1.134375 0.3489494290853123 0  1.700180620188976 0.3438659752031281 0  0.5003922072260507 0.341765274319271 0  0.6212513815748759 0.2209216137134851 0  0.6885607720119526 0.215393731583638 0  1.033412357328477 0.1612902025713047 0  2.135782184673599 0.07126652247502523 0  1.668441847249787 0.2129203728327609 0  1.295782514339747 0.2378437748815763 0  1.409375 0.3520314716057996 0  2.129248544730567 0.1906135162504124 0  2.060771381434487 0.1989445750470348 0  2.013252586573865 0.1496169464686054 0  1.942766402200229 0.1734448904596831 0  1.895522487186454 0.06076163953489683 0  2.069553871656643 0.06605731020975725 0  0.9281250000000001 0.3539050257418612 0  1.274680914880868 0.3520219391081363 0  0.3030138498135347 0.2488370856812789 0  0.8223773249563684 0.341761430177996 0  0.9018164060227267 0.2326477848736739 0  0.8143027982392851 0.2440265179987191 0  0.7225087161029304 0.2699907246386231 0  1.614713220494657 0.09473434380863296 0  0.378125 0.3566194660323104 0  0.309375 0.3566194660323104 0  1.72990325744076 0.2380068107952482 0  0.6915936999299305 0.3429472631234433 0  0.6268087624932918 0.3466455500035671 0  1.356580098625191 0.2120393231351682 0  0.3060160055995138 0.1590148921620778 0  0.3954648733249218 0.156380553890791 0  2.034370752044885 0.2668681600792073 0  1.51768709249349 0.3426260931494756 0  1.561883724969884 0.1650446847858835 0  1.197344062229598 0.2523725417393646 0  0.9281250000000001 0.05124999999999999 0  1.804085235518364 0.3468178408964637 0  1.817887819205233 0.2589243285818559 0  0.9107805776841645 0.1653834539923287 0  1.905897727272727 0.3485060975609756 0  0 0.05125 0  0.844212276491354 0.0614201194265309 0  0.378125 0.05244637078450034 0  1.008571329007178 0.2705955969954818 0  0.7724048032149464 0.1559079561351474 0  0.7203054377831548 0.04941826955193545 0  1.192836486056382 0.3562350748565544 0  0.5967108020713719 0.1479294686523888 0  1.28257088594801 0.2944411014911587 0  0.7041890234548132 0.1222025174424443 0  1.474860187679412 0.2504218616229368 0  1.406767003493824 0.2829282258560709 0  0.3201325899091991 0.05890121548989159 0  0.5979220912872258 0.2727591995766724 0  1.845656689180403 0.1998310418452388 0  2.144958525570388 0.2909790873294231 0  2.2 0.15375 0  1.57794966442982 0.3540357145964566 0  0.9483181579620558 0.1214693369582054 0  0.0496154796471391 0.333125 0  1.508991196088596 0.1421783375065625 0  0.09776612425612034 0.2204896805326566 0  1.50436820029908 0.06143401634903343 0  1.223857000523521 0.0823554862453532 0  0.2531953886959507 0.3582003209055908 0  1.153316824384777 0.1289850171317837 0  2.148922302309752 0.1258841779285271 0  1.621993280276081 0.2841214267927899 0  1.550118654119087 0.2461998729100966 0  1.327182649291491 0.1216967252533594 0  1.753125 0.04556020050186112 0  1.271875 0.04556020050186116 0  0.9824282234771738 0.05051969257615314 0  1.039510847866381 0.05683351822678641 0  1.94956388244759 0.1180512551534177 0  1.949997712993411 0.04965831614304109 0  1.771961817615021 0.1530278789497521 0  1.909246823951428 0.2812757146784527 0  1.101974016627944 0.2038045618205013 0  0.7906250000000001 0.0444674049654372 0  1.948575539857022 0.2445328248721197 0  1.697271520964565 0.1233917627620729 0  1.065625 0.3689344961371042 0  1.085849084308977 0.3170853572226867 0  0.9840604787624379 0.3582077516409966 0  1.577403511714593 0.05463601888079143 0  0.05622663515370135 0.05493816910862376 0  0.8762396958822678 0.3392249777398821 0  1.751571320346033 0.3651102912045228 0  1.055327852410105 0.111864799513911 0  0.1583785085108421 0.2994699345738728 0  0.1455283439499995 0.3542795598723423 0  2.2 0.35875 0  0.225705107073232 0.05084786997482401 0  0.1455852234589313 0.1166494778469164 0  1.466879772203159 0.3611261772912453 0  1.990280163552011 0.3564754268533217 0  1.17471064520912 0.2990917256188288 0  0.7221925551074015 0.1739659241003985 0  0 0.25625 0  2.2 0.25625 0  2.2 0.05125 0  0 0.15375 0  1.853978576207987 0.35875 0  0.21965520498276 0.1015543880164422 0  1.515638456102889 0.2882700110184686 0  0.09048297387599738 0.3637717362208066 0  2.150453692751374 0.2387066338105111 0  1.323782677156475 0.04897634338873398 0  1.409375 0.03715320121951221 0  1.406484531114799 0.1087852750766809 0  1.134375 0.03715320121951218 0  1.627401732573545 0.04552157221025036 0  0.446875 0.3713289093361426 0  2.045405893604797 0.1105340662939892 0  1.255408269734577 0.1577307500159216 0  2.028125 0.03707597992059326 0  0.04420832937638274 0.128125 0  0.5817551710628505 0.3702615006034757 0  0.1197849154434487 0.2663398672460083 0  1.248258025468107 0.2565907092181813 0  0.1300647302703173 0.0508462728378621 0  0.7738123537510222 0.2761231499240648 0  1.203125 0.0366132337404304 0  0.5444207041612499 0.111205399508622 0  0.8016457771828226 0.1964238426015905 0  2.072662025974815 0.2975086504196739 0  0.4019040438866802 0.2103993403217561 0  0.4677372330974851 0.04827477407630658 0  0.8677218578847617 0.1432970430140788 0  1.058011122005847 0.2758866204059919 0  0.4429405887974043 0.2746184809910084 0  0.5843750000000001 0.03726989681835222 0  0.6318596133730142 0.1128692182767254 0  0.4862628454464408 0.2957029785303028 0  0.7805186758662764 0.3673578380827891 0  1.887722846421017 0.1760882698830035 0  0.3498893058880703 0.256189258793856 0  1.472640588990488 0.1118278026240017 0  1.865937103925594 0.2604137786483804 0
[...]
<PointData  Scalars="f_43"> 
<DataArray  type="Float64"  Name="f_43"  format="ascii">4.2019685730123907e-01  4.5037165711878019e-01  1.6754621752305731e-10  -1.5680957370343354e-09  -3.6428136077557943e-01  -3.2795477218737767e-01  -3.5071871144514399e-01  -5.1806256777503190e-01  -9.3588451267277040e-01  8.5943951003601904e-01  1.9938928882083353e+00  3.9830324464638434e-01  -1.1599414994223027e+00  -5.1118594898262459e-01  -2.7796958203391714e-01  -2.5793075075378241e-01  -2.9866202216022331e-01  -4.6464767904929960e-01  -1.2045658574696753e-01  -1.0200142578141866e-01  -2.9813410194746243e-01  -1.5452712816716829e-01  -9.0564364869698669e-02  -5.2100253741575620e-01  3.8385650508495272e-03  7.6216122331677583e-01  -3.8770707548985942e-02  -2.0126798165433460e-01  -2.0265521281345406e-01  -3.2018216398232999e-03  1.8885138127206613e-02  4.1377616272417664e-02  2.8605228805393124e-02  3.0654630659746638e-02  3.9071803448746396e-02  2.8295168677173677e-02  3.1974638724282842e-02  -9.1169895701717171e-02  -8.6334084312157514e-02  2.8019533357790422e-02  3.3971793748658559e-02  1.0571350184513131e-02  1.9971378592172850e-02  -1.8667476106277473e-09  -7.7937814283859722e-02  2.2806934542188372e-02  1.3679713238596765e-02  -1.3873219708986745e-01  1.4868554696926186e-02  -1.6172475541552219e-09  -1.6250794330845331e-01  3.6304932171942896e-02  3.1577343965406901e-02  4.0755382054978188e-02  4.4328042489229995e-02  2.9127162010344338e-02  -6.5743285919904429e-02  -2.2557721242591103e-02  -1.9709747498131161e-01  3.6712886862315341e-01  3.4496297369298201e-01  -1.7814796058257992e-01  7.9538837309427342e-04  2.1103622120764387e-02  1.8085022012929136e-03  3.3482927216403412e-02  -2.4316375239110975e-02  3.6737922641801743e-02  2.9647700582923715e-02  -2.5504046001372038e-01  3.1953234245413707e-02  1.1050630503429608e-02  3.4949996500262107e-02  -1.0473369917475878e-02  -6.0894234411139538e-02  -3.0462484597939443e-01  5.1677719786202991e-01  5.5032796360071734e-01  -2.0982654117266239e-01  -8.6942934933474839e-02  -1.7891976083830360e-01  1.0873123343185949e-02  -3.0423584548647804e-02  2.0841925117520036e-02  2.3582968550043850e-02  3.7343050928764498e-02  -1.9284642926333861e-02  -1.2005377866794813e-01  2.8172459822084293e-02  4.2678482485122467e-02  -9.2053234216783796e-04  5.4055428342405810e-10  -8.4339302723935574e-04  2.8740243626637327e-02  5.1061851468569813e-02  1.5077637486292931e-02  -3.5782451667699783e-01  -2.1671845829200009e-01  -1.3423988347501080e-02  3.2543881473590879e-02  4.6024555791645683e-01  3.3027217208702463e-02  -1.6118468583331106e-02  1.4868155180664222e-01  1.0887684020253771e-02  -2.0155109905753965e-01  -2.1846163693469137e-01  4.8891970069497670e-01  6.7244885447571888e-04  6.8668883706519135e-03  8.2879626879745448e-03  3.2666507314912052e-02  1.9470297815666826e-01  3.7155771325481909e-02  -2.0987860569190042e-01  -2.1537342626028927e-01  4.0808691661764145e-02  -2.2886618852914592e-01  3.7997230149200749e-02  -1.5267160826576986e-01  -3.1220364254508977e-02  1.7661819581129282e-02  -1.4932534023551361e-01  -4.8622576498028466e-02  -2.2301247601506943e-01  2.1149849868052206e-01  8.9456746784191454e-01  7.1729053457691827e-01  -1.8733270133066832e-01  3.9035902227070297e-02  2.4960234505259884e-02  6.2062616119876856e-03  4.0061004090584669e-02  2.4288099521698261e-03  7.9620234601300750e-03  5.8818843485487554e-03  3.0362911506724391e-02  -1.8911875034073766e-01  8.6689953631433059e-03  2.5585303095781883e-02  -2.8665585998034229e-02  4.0802378278673601e-01  4.3237117824983828e-01  3.7377911637863359e-02  4.2648840894115768e-02  -5.7789225267968210e-02  3.7674832356847834e-02  3.7253517234426339e-02  4.8241753360155029e-02  3.0574853937579142e-02  3.6240846876401535e-02  7.0391543121376835e-03  -1.3124913703759605e-01  -1.0443104412158831e-01  -8.1467825164450572e-02  -1.4156427174275049e-01  -1.0918367435086730e-01  1.9496384677505768e-01  4.3606414733099280e-01  1.0085742706720245e-02  -2.5413753989339326e-02  -1.7327652669566154e-01  4.1163485159529112e-02  2.0655273337742888e-02  2.3307709960460148e-02  -3.3539551353828495e-01  4.2249375372152127e-02  -4.4052707718468045e-02  3.8389786105382767e-02  -2.1630543466153157e-01  -2.4877129179221044e-01  -1.7504046828047928e-01  1.7794904713990881e-02  6.4312600547572771e-03  3.6291506009923945e-02  3.4968957287045022e-02  3.5138383512206925e-02  7.5790857699014648e-03  1.5137722124610243e-02  1.9757533301599555e-02  2.7618913947607907e-02  3.2097194706484061e-02  1.3040442457245113e-02  -2.5835722087413273e-02  2.1997362382056570e-02  -3.5471259706538477e-01  -8.3504877853830678e-02  3.5192798710109330e-02  -5.9549845529369800e-03  -1.3972258228389609e-01  2.0753662313872327e-02  -1.6890181957134179e-01  -8.6222186638803988e-02  3.0938593815806305e-02  -1.6057222811088759e-01  -1.8985450971347675e-01  2.3777437780926263e-02  -3.5508825586582249e-01  -3.8287352009064868e-01  1.8305742355384184e-02  2.6274633958432804e-02  2.0176172377783227e-02  1.3854672984934356e-02  -7.7647491547311223e-02  3.4718900855629044e-02  3.4797232342082166e-02  -2.0967380819248402e-02  3.4700564295361176e-02  4.6329911313129957e-01  -7.8592763313408698e-02  -1.9361355833316016e-01  -9.4578675054738191e-03  -4.8038880323645804e-02  -1.1580393784846923e-01  -2.5670870778281382e-02  -2.5546914242444707e-01  2.7612377796239877e-02  -1.1221939820185392e-01  1.9502859145460953e-02  2.1884936877541145e-02  -1.3685973992741624e-01  -2.5600505008300278e-01  3.5253305726933346e-02  5.6629551104460671e-03  1.2961198670852532e-09  3.7089932503544594e-02  -3.4800456378273038e-02  4.5578325451592705e-01  2.9131383842718593e-02  1.1143474434233605e+00  4.4940735021108000e-02  3.3186909664658345e-03  2.8702198950632841e-02  1.6487864568070890e-02  5.2506626861318090e-03  4.0888014020962690e-02  4.1741918645614634e-02  1.1870956733001021e-02  4.5280124487112494e-02  -3.4653939266667735e-03  -5.8577777282279204e-02  -2.3125064334389801e-02  2.5912454285318184e-02  2.5242068833518143e-02  4.0094314872921352e-02  3.2637142668896377e-02  -7.0976860983615634e-03  -8.8045166253155158e-02  2.7903067353481081e-02  3.7916928320823981e-02  -3.2616858479449902e-02  -3.5518187671065092e-02  -1.5030574055980035e-02  2.3349271036199437e-02  4.5647622920838848e-01  -4.7638802574946265e-02  3.5527650428400372e-02  5.8521929338140716e-04  2.2797288484973546e-01  3.1933358586475230e-01  1.0234906039751549e-09  9.6382126887051139e-02  3.3492643164058244e-01  2.6178136233034281e-02  2.3892215802264045e-02  -2.2387053142826515e-02  -8.3421767736956517e-02  6.6796565891187087e-01  -1.6172475541552219e-09  -2.3674395338907379e-09  6.9399319874217102e-01  3.6473316616233695e-02  -1.4244184150170935e-01  2.9663990611572925e-02  3.9937771522983340e-01  5.2877942138886058e-03  6.2922881395153438e-03  4.3321480230200882e-02  3.7879747941186273e-02  1.2917518666574401e-02  2.2220849434866938e-02  -1.9441814221481918e-01  1.5809295060575573e-02  2.6770437543895192e-03  1.7151769943665601e-02  6.3717751802984135e-01  -1.9713989976637986e-01  6.6374459572284439e-01  2.8769814044012795e-02  3.7268255837507253e-01  -7.3284410446058115e-02  5.9882897146489016e-03  -2.7993344278619797e-01  -2.3284799188842471e-02  1.3722593712964037e-02  -3.3528147938899644e-01  -2.0779087152924103e-01  -4.2689093850761368e-02  -2.3152423340198180e-02  -2.2478919863556635e-01  -1.8977418481156080e-01  -1.9518634173397309e-01  -2.3219982947156903e-01  -1.1645345995256848e-01  3.2816169507026392e-02  -3.5453141108390429e-01  4.2233489729145091e-02  3.4711145459206678e-02  4.7029543348930768e-04  2.0634119913024596e-02  -1.3285141861839916e-01  3.8324154479267458e-02  -1.4763726131980345e-01  -1.6787419421760463e-01  -1.4078798250402502e-01  7.1467238584721924e-03  -2.2445561173161802e-01  -1.9602288583674740e-01  3.4026118423906702e-02  -2.9253801703834609e-01  -2.4034851824278036e-01  3.2281105034015815e-02  9.4702248309198444e-03  2.8409962517551259e-02  -4.2890082440536992e-02  1.8986282445700400e-02  -3.4887051606326580e-01  -3.6020648355192081e-01  2.4362562482493477e-02  -3.7155157098714320e-01  9.0190454863041347e-01  3.3366026567314744e-02  8.3730310449184153e-01  2.3509898326671066e-02  2.8790681489232202e-02  -1.1355626253179847e-02  3.7579735804009261e-03  1.0801676078393959e-02  1.3193279247576512e-02  -7.7777376395569498e-03  1.3210099314840986e-02  4.0535957453843183e-02  -1.7080244277029707e-01  -2.9686515895227389e-01  4.1282455131177322e-02  -6.9221632868303559e-02  2.1713024522888862e-02  1.7549719299692658e-02  1.4869436626715252e-02  4.7361350589839660e-02  3.0941017911989496e-02  -2.0536008054085142e-01  -2.0190239495773118e-01  3.2773974912956041e-02  3.4808737965381205e-02  3.9372501531071011e-02  4.0608209096870259e-03  4.0717847091061628e-03  4.1770185222581580e-01  -3.0850571592073089e-01  -4.1556445001088661e-02  4.0303106509411254e-02  4.4408695812554431e-02  3.5516782614901023e-02  -7.5726636201027916e-02  3.1938796613642642e-02  2.9858428522895532e-02  -7.9792943605597716e-02  -2.3368630855976326e-02  3.6384232951411750e-02  3.4646372205679787e-02  2.9088098259542805e-01  4.1162081843296845e-02  -2.0845640438954582e-01  -2.0527673156859633e-01  -4.0226855521520201e-03  2.7997604822076694e-01  1.5159560158568838e-02  -2.1572652395980260e-02  3.1751849019437506e-02  -2.5411021050759425e-01  -1.3722197161330049e-03  1.1264634577386988e-02  5.0875756288418159e-02  4.3539746115018978e-02  -2.6596500502279635e-01  -1.9750643258612921e-01  1.5714991046039059e-02  1.6927719143767835e-02  -3.5094103213338308e-03  1.5205915331789535e-02  -6.6638858568194397e-03  4.1375599080579299e-03  4.1207593734012266e-01  3.7161145352604098e-02  -1.3843759971167274e-01  -2.1906327922678584e-01  -1.4535559435562070e-01  2.1087742847457267e-02  -3.4151960287546806e-01  3.4940284295011365e-02  -8.3547929361489942e-02  3.7386521313242237e-02  3.2745546778413889e-02  2.7899579511191944e-02  -6.3307355370032223e-02  3.9069365350208683e-02  3.9112101645138821e-02  2.9673915441530280e-02  2.7595490825415698e-02  4.4769735968299806e-01  4.2055066697857219e-01  1.7829784753323988e-02  3.9827057228941427e-02  -7.3445674348789292e-02  -7.8769215402081108e-02  -3.8199871345398310e-02  1.8060584320337612e-02  5.5262431773077969e-01  -2.3657792965733312e-01  6.8880710020596447e-01  -1.7868917907783249e-01  4.4755284608949668e-02  -7.6662275480306977e-02  -1.0988797930868193e-02  -2.6176071963233427e-01  3.1459031015835789e-02  7.5821351848949792e-01  -1.8990700089319806e-01  1.6818076411039586e-02  1.7700362323890561e-02  2.5019765664423349e-01  3.2361462998662847e-02  5.9308157115059279e-01  3.6597416507325710e-02  -1.1062297469107071e-01  3.4365584321337315e-02  1.7870943379175785e-02  4.1162422771239139e-02  4.2323669460089166e-03  2.5675501436122985e-02  2.3167170258412965e-02  1.1583061227326694e-02  3.9267498377057855e-02  1.7621604849109369e-02  -1.9456919413496518e-01  2.3936472710407653e-02  -2.3687922862211094e-01  -1.5742306192456407e-01  1.1697030341379644e-02  3.0077727254157012e-03  5.2462161874821223e-01  4.1270563296452734e-02  4.1184753898702312e-02  2.2893862370967583e-01  4.3125863509420348e-01  -2.1055545414457116e-02  4.9365639564305808e-01  4.1353087236329959e-02  -6.5852300801108404e-02  2.4111394504939876e-02  -2.0855521814300362e-01  2.9541309974094574e-02  4.1521893743973422e-02  -1.5446024454523646e-01  -4.5833009137343901e-02  1.4981930159057648e-02  1.9127818963668948e-02  1.1004409430429992e-03  9.6183351226122923e-03  -6.5022082262933337e-02  8.9331113509744705e-03  3.9390501478892429e-03  3.3321667497059650e-02  3.2064505007422202e-02  -3.4755908335014396e-01  4.2163478298957988e-02  -4.1370259591072399e-02  3.5646916874774613e-03  8.0962928488387299e-03  2.6689889169719309e-02  9.4317341255214671e-03  1.6492160032382974e-02  3.5487600305482273e-02  3.7509161745552168e-02  -8.0317790793247128e-03  -2.0876774824198974e-01  -2.0178162582750894e-01  9.2659291803692312e-02  -8.9585706984927321e-02  -1.0119374346240459e-01  -2.0496702067110256e-01  -1.7922872907018075e-01  1.3587067787610796e+00  -4.0496080282829826e-02  1.5205142288858239e-01  -3.6709975688411889e-02  -3.8550079219853879e-02  3.4615903081646589e-02  3.8824663130398257e-02  4.0548917382123267e-02  -3.8845710382314970e-02  3.1020531205539239e-02  8.1814904341148270e-03  -1.6108601483448941e-02  -3.3535042841519397e-01  -2.0712756989257625e-01  3.5413517042023328e-02  -3.4369885379193243e-01  -2.6763577000732602e-01  -4.4926208918915690e-04  -2.9775787397464887e-01  -3.5162046195946262e-01  3.1780117606368452e-02  4.0115709022964532e-02  2.2398002461272701e-02  1.8513290632163778e-02  2.7321486543995365e-02  1.9050270652481448e-02  -2.2718021968984994e-01  -4.0934211948848914e-02  -2.7546055231028009e-02  -1.1857709726029895e-02  1.1718449814992031e-02  1.6942412650683653e-02  3.4069052635178486e-03  1.0377029468957782e-02  4.2522839465207039e-02  2.7890502772165579e-02  3.6554285368700874e-02  -3.2788962211530721e-02  4.4433287476376190e-02  -1.2012820608748749e-01  -7.5995995235243807e-02  -3.2264219772667968e-02  3.5211781990238472e-02  1.0568411395035854e-02  3.4114592548719915e-03  -9.6520758383902196e-03  -1.9317203622597368e-01  -1.7599215924064637e-01  -1.4997256077250579e-01  3.8500973287505841e-01  1.0638941942658126e-01  -1.1213610774757955e-01  -1.9080803163638083e-01  -1.9711617777235674e-01  -9.3190893551536771e-02  -5.6201069498825224e-02  -1.1972079365990680e-01  -1.6160607687358070e-01  -1.7586144330754619e-01  5.3605933113281008e-03  2.4525560671535329e-02  2.4394552234134812e-02  2.3771027753208829e-04  1.7151604726399653e-02  2.7937855724684817e-02  -4.8443037267943446e-02  3.7597666303558569e-02  -1.7428614965018630e-01  1.9486475374360969e-02  2.9645470732299315e-02  4.5652309240467549e-03  5.8528876454529881e-03  4.1646233585294685e-02  1.7795345544486609e-02  -9.6986085669275773e-02  -5.1334271434185029e-02  -3.1629469249184766e-01  -3.3916697012930219e-01  -1.1960995847562075e-01  -1.1805999608531972e-03  3.0630330906921466e-02  3.1803677389762065e-02  2.5786532297527648e-03  3.8749342271265635e-01  -3.5974552063933934e-02  3.0309499537100139e-02  2.3884080046084527e-02  -1.1978409941804842e-01  3.0479653801708889e-02  2.8317191879911319e-01  2.7869202690487451e-02  3.2700898542293577e-02  3.2753814408558346e-02  3.4876292603872462e-02  1.7128185878531123e-02  -1.5551747868031496e-01  3.5140556345838167e-02  -7.2383094823906882e-02  3.8967730690604531e-02  3.6225138934063268e-02  2.0390123240067573e-02  -1.7928961925758019e-01  3.2363291801163395e-02  2.7107113045892885e-02  7.3235179225929570e-01  -1.8533970230063934e-01  2.2979159130161703e-02  2.2971940270876175e-02  -2.7078623397372881e-01  -8.1714414181845468e-02  1.3815495693781037e-02  1.1366445788311138e-02  2.3782468241295845e-02  7.9608710438246000e-01  6.2165635925035684e-03  7.3509611944184367e-03  2.9923880941687249e-02  3.0034638376813656e-02  3.6327755273308027e-01  1.1984263962828237e-02  3.2389130876319266e-01  -2.1853186976330333e-02  1.7614274196118825e-02  -3.7056197033511862e-01  -3.7470119553022735e-01  3.5871019796326523e-02  -3.5754002959356623e-01  -6.9027882187643594e-02  3.5103716012435220e-02  3.7677814279533269e-02  3.5229070162640527e-02  2.4113812254065399e-02  -3.9485731880581736e-02  3.3145037254830503e-03  1.2106551656697561e-03  -3.7986398631090615e-02  2.2755328897486094e-02  -2.0031424375285423e-01  2.2562199071721925e-02  2.2711325266397360e-02  3.3944595689344409e-02  -8.3672704474223841e-02  -1.6042233307251519e-01  -1.1471238571805926e-01  -9.4671162883672208e-02  7.0214949021106280e-03  3.4689823303176194e-02  -2.7186155807520046e-01  -1.8221280440948123e-01  -2.0559637885624502e-01  3.8940869280883673e-02  5.7700616905232760e-01  2.5023126262904354e-02  -9.5695700738666293e-03  -1.1439857807877266e-01  1.2837319923120791e-02  -2.4453623510464101e-01  3.5949137841387632e-02  -3.5677604815572844e-01  1.7224640313654525e-02  -1.5659738090619529e-01  -1.8578755774408526e-01  -2.1579716356881973e-01  3.0874039889226136e-02  1.0098803139803143e-02  2.7926667366102068e-02  3.4378133550888194e-02  -2.0228877845566477e-02  -8.7809030862024254e-02  1.1178957690275633e+00  3.2025983023302680e-02  8.9998600262876632e-04  -3.2703547980839592e-01  3.1418882172913068e-02  1.2354661219383955e-02  3.5753668157680288e-02  5.1161024008398934e-02  3.3427724805876365e-02  3.4500538860568544e-02  1.1545319223973777e-02  4.4861037314810365e-02  2.6065730318202356e-02  -7.2637901845258493e-02  -8.0629783534968927e-02  4.5077172329597393e-01  4.4903110860711354e-01  2.3473682005019560e-02  -2.7913262837281300e-01  3.1721833241968686e-02  -1.3431124806238574e-03  -1.5064634239969798e-02  -1.2996765192127212e-02  3.0557581464513921e-02  -2.6797949526218886e-02  5.9780740108186425e-01  -4.3043027673622170e-02  3.1683849281074927e-02  6.5558697692586140e-02  2.3931051551208155e-01  -1.2691234456752998e-01  2.2728096459303449e-02  4.0307853373441963e-02  -2.5241805051912436e-01  -2.1846307164552836e-01  -3.5683694053860016e-01  -3.3351241199569281e-03  3.6440681164314766e-02  -2.7572988959760791e-01  4.3344668280414228e-01  7.4587247977103166e-01  1.0018021052282319e-02  -1.3166518595037072e-01  4.1308177952266441e-02  2.5895411988079296e-02  2.7042896815477422e-02  3.4354767795179500e-02  -1.8667476106277473e-09  -2.1855962913143628e-01  3.8528703363065575e-02  3.5574708674275335e-03  -2.2202142682303377e-01  -2.2603493021947524e-01  1.4814044893327102e-02  -1.2866836835728102e-01  3.8459862626516039e-01  3.6947354467980492e-01  3.3083218244080052e-02  1.8568631929715383e-02  1.0726240068642631e-02  2.2125055349513249e-02  2.3570862424250744e-02  4.9398645216677688e-02  3.6044141111564912e-02  -1.8869297762676154e-01  2.3772901035819263e-02  1.1453590337909429e-02  -2.4891784256558195e-02  -3.1108932135813980e-02  -8.0005632470477636e-02  -2.3163262323938325e-01  3.3914200532141177e-02  -1.3370561172047207e-01  3.7786450173740951e-02  5.4055428342405810e-10  1.8123322108771451e-02  3.2117397820040465e-02  2.3393384027745850e-02  -1.3439929703072259e-01  4.2907878065262473e-02  8.5774910222237277e-03  -4.2819493677804646e-02  -2.4412261461798174e-02  -2.7076933942136470e-02  -4.9024585124529486e-02  2.1596263307992421e-02  -2.0157614323607412e-02  -5.7159621937946502e-03  -4.2213257391674509e-02  3.4965691724175955e-02  4.2368025493854364e-02  -1.0672025867654693e-02  3.8838504612393843e-01  -1.9336894529563428e-02  3.5924240900131625e-02  -6.9346029515898619e-02  6.4390036601204145e-03  7.4110910492452839e-03  2.9339622691357823e-03  -2.1040499854029851e-01  3.4563258265965069e-02  2.4252344794782998e-02  8.6245880290702973e-03  -2.2497629013023102e-01  1.5606389563434149e-03  4.3300085495080048e-02  4.5014159896338862e-02  -1.9045529422846910e-01  -2.0557321027991601e-01  2.3210694841014207e-02  -2.3636540231846370e-01  -2.5833111134485798e-01  -2.5093736714101889e-01  1.3160999028156505e-02  1.5966416096474867e-02  1.6167011608658480e-02  -4.2782529424966376e-01  -1.2074078459289999e-02  -1.2645216790172492e-01  -4.3850175746208992e-03  3.1509106685104543e-01  -4.9697696443355116e-02  1.5317755519494089e-02  -1.0081263322604879e-01  -1.8667476106277473e-09  1.0725927854160522e+00  8.7329077058102300e-01  -1.5469398357660782e-02  -3.3719270029280921e-02  -1.6331106297943063e-01  3.7317996605456254e-02  4.0912061346799047e-02  -1.4524821452653214e-01  2.9179030090097220e-02  -1.9983899576045605e-01  5.1746204801364704e-01  4.6295842770000240e-01  4.6749653297186727e-01  2.7340875435580354e-02  1.1986148511346478e-02  3.4893176159773956e-02  4.1009578963479586e-02  4.2334055684045753e-02  4.1122493956189041e-02  5.2313947336141520e-01  9.4474545482334353e-03  -3.8253068669432794e-01  2.7170510481730685e-02  3.5229592054114037e-02  3.4853511225197802e-02  2.8485006757347948e-02  2.7059364842939117e-02  -1.9934146522647561e-01  3.5998956913907663e-02  -2.