<?xml version="1.0"?>
<VTKFile type="UnstructuredGrid"  version="0.1"  >
<UnstructuredGrid>
<Piece  NumberOfPoints="2426" NumberOfCells="4534">
<Points>
<DataArray  type="Float64"  NumberOfComponents="3"  format="ascii">0 0.41 0  0 0 0  2.2 0 0  2.2 0.41 0  0.2404508497187474 0.2293892626146237 0  0.25 0.2 0  0.2404508497187474 0.1706107373853764 0  0.2154508497187474 0.1524471741852423 0  0.1845491502812526 0.1524471741852423 0  0.1595491502812526 0.1706107373853764 0  0.15 0.2 0  0.1595491502812526 0.2293892626146237 0  0.1845491502812527 0.2475528258147577 0  0.2154508497187474 0.2475528258147577 0  0.5404508497187474 0.2293892626146237 0  0.55 0.2 0  0.5404508497187474 0.1706107373853764 0  0.5154508497187473 0.1524471741852423 0  0.4845491502812526 0.1524471741852423 0  0.4595491502812526 0.1706107373853764 0  0.45 0.2 0  0.4595491502812526 0.2293892626146237 0  0.4845491502812526 0.2475528258147577 0  0.5154508497187473 0.2475528258147577 0  1.1 0 0  0 0.205 0  1.1 0.41 0  0.55 0 0  0.55 0.41 0  0.275 0 0  0.275 0.41 0  1.65 0.41 0  1.65 0 0  1.375 0 0  1.375 0.41 0  1.925 0 0  1.925 0.41 0  0.8250000000000001 0.41 0  0.8250000000000001 0 0  1.5125 0.205 0  1.7875 0.205 0  0.9625000000000001 0.205 0  1.2375 0.205 0  2.2 0.205 0  0.7560964076246335 0.2151713709677419 0  1.99375 0.2152743902439024 0  2.0625 0 0  0.6875 0 0  2.0625 0.41 0  2.2 0.3075 0  0.6875 0.41 0  1.7875 0.41 0  1.375 0.1486128048780488 0  1.5125 0 0  1.7875 0 0  1.5125 0.41 0  0.9625000000000001 0 0  0.9625000000000001 0.41 0  0.4125 0 0  0.1375 0 0  0.1375 0.41 0  0.4125 0.41 0  1.2375 0 0  1.1 0.1486128048780487 0  1.2375 0.41 0  1.65 0.1486128048780487 0  1.126715909090909 0.2793064024390244 0  1.676715909090909 0.2793064024390244 0  1.348284090909091 0.2793064024390244 0  0.34375 0.3032389320646208 0  1.894702181800738 0.1282910975492754 0  2.092797818199262 0.1282910975492754 0  1.85625 0.3075 0  0.8630851210521902 0.286932093388664 0  0.89375 0.1025 0  0.35 0.1090282786671641 0  0 0.3075 0  0 0.1025 0  0.6526217841291382 0.288229645480046 0  0.7562500000000001 0.09660248895515888 0  0.6568633732316684 0.1557582854763441 0  2.099172119769978 0.25625 0  1.002356446954348 0.1010393851523063 0  1.99375 0.08395950269330846 0  1.459960956013612 0.3075 0  1.569025960719943 0.2986889805672169 0  1.03125 0.3278689922742084 0  0.75625 0.3247156761655783 0  1.959375 0.3126371951219512 0  1.749222215368287 0.1025 0  1.275777784631713 0.1025 0  2.2 0.1025 0  1.225938124459196 0.3075 0  1.550777784631713 0.1025 0  1.44375 0.07430640243902442 0  1.16875 0.07430640243902437 0  0.3528655045338512 0.2063263890916129 0  0.5890337614812103 0.08775733857679162 0  0.8504912436891263 0.190072835691683 0  1.899250267340833 0.2229966846119207 0  0.1020898364287272 0.3140258291809757 0  1.766482954545455 0.2934032012195123 0  1.051658316544432 0.2265720188842194 0  0.2 0.3400647632937836 0  1.421109702350723 0.2261157654379721 0  0.4812500000000001 0.41 0  0.4324401666997539 0.3216425986889796 0  0.098916018031319 0.09171660955420841 0  0.9508742791313441 0.2921736960864468 0  2.13125 0 0  2.118919042110979 0.3422084711244843 0  1.30625 0.41 0  0.20625 0 0  1.597888256393107 0.2173787389261347 0  0.4812500000000001 0 0  0.4324082967851086 0.08384041677422771 0  1.829299675393195 0.07400700849299596 0  0.568219932524165 0.3212274660843853 0  1.71875 0.41 0  0.268005226542646 0.08512186835670006 0  1.16875 0.41 0  2.038220665644273 0.332420740103091 0  0.6678017527842831 0.07701763866051195 0  0.89375 0.41 0  0.5111435174287687 0.07335351331957608 0  0.176193934632343 0.0734896648625108 0  0.07390688010811153 0.1697064032433452 0  0.05452951551825875 0.25625 0  0.61875 0.41 0  1.452769549894695 0.1548122580621249 0  1.369219062229598 0.07430640243902442 0  1.30625 0 0  1.720943423819132 0.1714577452753128 0  1.157188124459196 0.205 0  1.094219062229598 0.07430640243902437 0  1.304056576180868 0.1714577452753128 0  1.67579304192913 0.07430640243902437 0  0.2672907219039591 0.3037570723459566 0  1.209670467133757 0.1362100266964769 0  1.58125 0 0  1.03125 0 0  0.06875000000000001 0.41 0  0 0.35875 0  1.58125 0.41 0  1.631724228912893 0.3381867502687533 0  0.8240147050827157 0.1225233169495944 0  1.825608881788174 0.14499488549201 0  1.85625 0 0  1.44375 0 0  1.44375 0.41 0  1.85625 0.41 0  2.13125 0.41 0  0.7562500000000001 0.41 0  0.7562500000000001 0 0  0.89375 0 0  0.34375 0 0  0.34375 0.41 0  0.20625 0.41 0  0.06875000000000001 0 0  1.16875 0 0  1.03125 0.41 0  0.61875 0 0  1.71875 0 0  1.99375 0 0  1.99375 0.41 0  0.3972301426712326 0.2593842555611471 0  1.340625 0.3489494290853124 0  1.134375 0.3489494290853123 0  1.700180620188976 0.3438659752031281 0  0.5003922072260507 0.341765274319271 0  0.6212513815748759 0.2209216137134851 0  0.6885607720119526 0.215393731583638 0  1.033412357328477 0.1612902025713047 0  2.135782184673599 0.07126652247502523 0  1.668441847249787 0.2129203728327609 0  1.295782514339747 0.2378437748815763 0  1.409375 0.3520314716057996 0  2.129248544730567 0.1906135162504124 0  2.060771381434487 0.1989445750470348 0  2.013252586573865 0.1496169464686054 0  1.942766402200229 0.1734448904596831 0  1.895522487186454 0.06076163953489683 0  2.069553871656643 0.06605731020975725 0  0.9281250000000001 0.3539050257418612 0  1.274680914880868 0.3520219391081363 0  0.3030138498135347 0.2488370856812789 0  0.8223773249563684 0.341761430177996 0  0.9018164060227267 0.2326477848736739 0  0.8143027982392851 0.2440265179987191 0  0.7225087161029304 0.2699907246386231 0  1.614713220494657 0.09473434380863296 0  0.378125 0.3566194660323104 0  0.309375 0.3566194660323104 0  1.72990325744076 0.2380068107952482 0  0.6915936999299305 0.3429472631234433 0  0.6268087624932918 0.3466455500035671 0  1.356580098625191 0.2120393231351682 0  0.3060160055995138 0.1590148921620778 0  0.3954648733249218 0.156380553890791 0  2.034370752044885 0.2668681600792073 0  1.51768709249349 0.3426260931494756 0  1.561883724969884 0.1650446847858835 0  1.197344062229598 0.2523725417393646 0  0.9281250000000001 0.05124999999999999 0  1.804085235518364 0.3468178408964637 0  1.817887819205233 0.2589243285818559 0  0.9107805776841645 0.1653834539923287 0  1.905897727272727 0.3485060975609756 0  0 0.05125 0  0.844212276491354 0.0614201194265309 0  0.378125 0.05244637078450034 0  1.008571329007178 0.2705955969954818 0  0.7724048032149464 0.1559079561351474 0  0.7203054377831548 0.04941826955193545 0  1.192836486056382 0.3562350748565544 0  0.5967108020713719 0.1479294686523888 0  1.28257088594801 0.2944411014911587 0  0.7041890234548132 0.1222025174424443 0  1.474860187679412 0.2504218616229368 0  1.406767003493824 0.2829282258560709 0  0.3201325899091991 0.05890121548989159 0  0.5979220912872258 0.2727591995766724 0  1.845656689180403 0.1998310418452388 0  2.144958525570388 0.2909790873294231 0  2.2 0.15375 0  1.57794966442982 0.3540357145964566 0  0.9483181579620558 0.1214693369582054 0  0.0496154796471391 0.333125 0  1.508991196088596 0.1421783375065625 0  0.09776612425612034 0.2204896805326566 0  1.50436820029908 0.06143401634903343 0  1.223857000523521 0.0823554862453532 0  0.2531953886959507 0.3582003209055908 0  1.153316824384777 0.1289850171317837 0  2.148922302309752 0.1258841779285271 0  1.621993280276081 0.2841214267927899 0  1.550118654119087 0.2461998729100966 0  1.327182649291491 0.1216967252533594 0  1.753125 0.04556020050186112 0  1.271875 0.04556020050186116 0  0.9824282234771738 0.05051969257615314 0  1.039510847866381 0.05683351822678641 0  1.94956388244759 0.1180512551534177 0  1.949997712993411 0.04965831614304109 0  1.771961817615021 0.1530278789497521 0  1.909246823951428 0.2812757146784527 0  1.101974016627944 0.2038045618205013 0  0.7906250000000001 0.0444674049654372 0  1.948575539857022 0.2445328248721197 0  1.697271520964565 0.1233917627620729 0  1.065625 0.3689344961371042 0  1.085849084308977 0.3170853572226867 0  0.9840604787624379 0.3582077516409966 0  1.577403511714593 0.05463601888079143 0  0.05622663515370135 0.05493816910862376 0  0.8762396958822678 0.3392249777398821 0  1.751571320346033 0.3651102912045228 0  1.055327852410105 0.111864799513911 0  0.1583785085108421 0.2994699345738728 0  0.1455283439499995 0.3542795598723423 0  2.2 0.35875 0  0.225705107073232 0.05084786997482401 0  0.1455852234589313 0.1166494778469164 0  1.466879772203159 0.3611261772912453 0  1.990280163552011 0.3564754268533217 0  1.17471064520912 0.2990917256188288 0  0.7221925551074015 0.1739659241003985 0  0 0.25625 0  2.2 0.25625 0  2.2 0.05125 0  0 0.15375 0  1.853978576207987 0.35875 0  0.21965520498276 0.1015543880164422 0  1.515638456102889 0.2882700110184686 0  0.09048297387599738 0.3637717362208066 0  2.150453692751374 0.2387066338105111 0  1.323782677156475 0.04897634338873398 0  1.409375 0.03715320121951221 0  1.406484531114799 0.1087852750766809 0  1.134375 0.03715320121951218 0  1.627401732573545 0.04552157221025036 0  0.446875 0.3713289093361426 0  2.045405893604797 0.1105340662939892 0  1.255408269734577 0.1577307500159216 0  2.028125 0.03707597992059326 0  0.04420832937638274 0.128125 0  0.5817551710628505 0.3702615006034757 0  0.1197849154434487 0.2663398672460083 0  1.248258025468107 0.2565907092181813 0  0.1300647302703173 0.0508462728378621 0  0.7738123537510222 0.2761231499240648 0  1.203125 0.0366132337404304 0  0.5444207041612499 0.111205399508622 0  0.8016457771828226 0.1964238426015905 0  2.072662025974815 0.2975086504196739 0  0.4019040438866802 0.2103993403217561 0  0.4677372330974851 0.04827477407630658 0  0.8677218578847617 0.1432970430140788 0  1.058011122005847 0.2758866204059919 0  0.4429405887974043 0.2746184809910084 0  0.5843750000000001 0.03726989681835222 0  0.6318596133730142 0.1128692182767254 0  0.4862628454464408 0.2957029785303028 0  0.7805186758662764 0.3673578380827891 0  1.887722846421017 0.1760882698830035 0  0.3498893058880703 0.256189258793856 0  1.472640588990488 0.1118278026240017 0  1.865937103925594 0.2604137786483804 0
[...]
<PointData  Scalars="f_43"> 
<DataArray  type="Float64"  Name="f_43"  format="ascii">4.5009790142187905e-01  4.8491772569837471e-01  -4.0460755193230627e-10  -6.4221786607413185e-10  -3.1500698764945889e-01  -2.6637639874926750e-01  -2.9632061230592338e-01  -4.4550335793485363e-01  -8.6181776678270794e-01  8.9829405887318592e-01  2.0276130654503857e+00  4.3879970658096673e-01  -1.0992738453283681e+00  -4.4925554580057064e-01  -1.6205811893334751e-01  -1.4515640761489526e-01  -1.8054302686453472e-01  -4.1744290237212139e-01  1.1500876763985379e-01  2.4459269716235178e-02  -3.8171725832819509e-01  -1.2871994619886662e-01  1.1887659139929235e-01  -5.0088031025461210e-01  1.6753176820439489e-01  7.9637156492392269e-01  1.6354586674185753e-01  -1.8821783334034209e-01  -1.9868226469500033e-01  7.9691980080457206e-03  2.4824442254185449e-02  8.2351175878648639e-02  8.2306772607751114e-02  1.2322755962282671e-01  1.2295868032466989e-01  4.0810831886081665e-02  4.0893091339004317e-02  4.3601529628917418e-02  4.8664815649919618e-02  1.0259774331084733e-01  6.1576756788128649e-02  1.8687420753414280e-01  1.4331613835097728e-01  -1.5414793160607200e-09  1.8490412190375269e-02  3.0736049881111817e-02  2.0048149612788991e-02  -4.5488086987497470e-02  2.1087032509617968e-02  -1.1855651532124413e-09  -6.3588220678893317e-02  6.1891697120305171e-02  1.2322754109112480e-01  1.0285993171739083e-01  6.1824720559203523e-02  1.0302822312705884e-01  1.5276975357091749e-01  1.4608363040518954e-01  -2.1565048223190697e-01  4.0160971810702667e-01  3.7312677076718531e-01  -1.9989604783713458e-01  1.4451941068599217e-01  1.6282098004414722e-01  1.4360917894621783e-01  8.2047270085231203e-02  1.5824236830248603e-01  7.8110941847415849e-02  1.2705392372296187e-01  -3.4015602136558659e-01  4.5534196099018043e-02  1.5922802327582988e-02  5.1309635769790765e-02  1.4717631468995587e-01  1.4470606319978674e-01  -4.5076919047238823e-01  5.4791492284846888e-01  5.8509899290965928e-01  -1.4449173361308171e-01  1.7938854020741753e-02  -1.6932099879088297e-01  1.5005834506816390e-02  1.6854476633525922e-01  3.0750280191362476e-02  1.1037082999287720e-01  9.4101221252259420e-02  1.6501301114568387e-01  5.9924460289490352e-03  3.5945903255469862e-02  6.7250646446169779e-02  1.3823522040022734e-01  6.4560824613466075e-10  1.4494749166195359e-01  9.6920095330427711e-02  1.1299799837713095e-01  1.5505560662078838e-01  -5.3913546999868367e-01  -1.6025381404491487e-01  2.2418006072678939e-01  4.4855974607423070e-02  4.9137941357729359e-01  6.4739978311844540e-02  1.6832949347372872e-01  1.7248372813821072e-01  1.1621341979021692e-01  -2.1833144270375723e-01  -2.5959818775149185e-01  5.2454233251583715e-01  1.6296645136414145e-01  1.0055248059661150e-02  1.1985463908136295e-02  1.3333041399158227e-01  2.2363113785390668e-01  8.9835903147027510e-02  -2.1867741994907763e-01  -2.3451655260067911e-01  5.5378750641688845e-02  -1.8094224341772014e-01  7.1700725863092674e-02  -1.4028385016900824e-01  1.5376716771576107e-01  2.4136656783386549e-02  -8.4139173071500692e-02  9.4142588558768323e-02  -1.9076614288869034e-01  2.4638412159668130e-01  9.3014359429803595e-01  7.5045912739526521e-01  -1.3894313266835043e-01  1.1157574569062455e-01  1.2420963465649017e-01  1.3397852227902740e-01  7.1469578964043046e-02  1.5456204896084669e-01  1.6586611330694473e-01  1.3371851097414997e-01  7.8167871240621092e-02  -1.7868910826743950e-01  1.4784170855573689e-01  9.2374120798785569e-02  1.7235267348422997e-01  4.3776610886494027e-01  4.6245122641096936e-01  9.2082185859136037e-02  8.4879575747346808e-02  1.2965494808330127e-01  5.5864651077760556e-02  5.1062025394258755e-02  1.1300625309420780e-01  1.1257204693241032e-01  5.1050264206752190e-02  1.0232528684328697e-02  -3.1834524639727529e-04  1.4852925159108599e-02  9.8036432064833368e-02  -1.5541857942831361e-01  -1.2215819720238867e-01  2.1642264897996563e-01  4.7071520213870355e-01  1.5573612506014115e-01  1.6644626209846708e-01  -1.1810844539404863e-01  7.1932892336041970e-02  3.0632393114499116e-02  3.0255685827805485e-02  -5.5678528869770338e-01  1.2814564570846912e-01  1.5835320222912644e-01  7.4621110844467278e-02  -2.1160634966035366e-01  -1.6057189970682414e-01  -1.8888840947918006e-01  1.7142111659620829e-01  9.5532070289925733e-03  7.9319437535499429e-02  1.3479813750649242e-01  1.1792529118129889e-01  1.0531978257360085e-02  2.0737938156841780e-02  2.7788847969605353e-02  3.8346024544055439e-02  4.5367380134657735e-02  1.9287871631439035e-02  1.2581799603199348e-01  1.3806123212785426e-01  -3.7725380093242883e-01  6.3280833527545488e-02  2.0073042938394639e-01  1.6527180819080406e-01  -1.0546903424185189e-01  8.7295311020904751e-02  -2.0147574971802476e-01  -9.7265528969509879e-02  7.0170917423848095e-02  -6.7510862045344969e-02  -1.3579239296234785e-01  1.2585221821426898e-01  -3.9844706900065707e-01  -6.8637381065232295e-01  2.4680902722345896e-02  1.0172744156435537e-01  9.5234839455797651e-02  1.4886669108794279e-01  1.2924199682279053e-01  5.9177616269794502e-02  5.7030014417134130e-02  1.9602255945630506e-01  4.3867897514352404e-02  4.9785739475285595e-01  7.3564718089402265e-02  -2.2799840063070131e-01  1.6962434534853960e-01  7.0473837550838442e-02  -1.0594005348597516e-02  1.5019651371947390e-01  -1.4312032296822993e-01  1.3672918495111536e-01  -1.0453228719796950e-01  1.0818953028044720e-01  1.1834652922576587e-01  -1.5928691544285889e-01  -1.4840478953087211e-01  5.2876603014453342e-02  8.1829990859090870e-03  1.0334309299771413e-09  9.2698494708684284e-02  1.6996321403786541e-01  4.8629453153732155e-01  1.0314650086854754e-01  1.1491956694297558e+00  1.0399877408130552e-01  1.4628514474069237e-01  3.9405139874499742e-02  1.5603295680597273e-01  7.5932157421984498e-03  8.6252838812353516e-02  9.6949749303142319e-02  1.3041995546053486e-01  6.6726057945519446e-02  1.3905124566782717e-01  1.6201426029997687e-01  1.7107072543930360e-01  3.7344140879938523e-02  3.7216732904990106e-02  6.3877202492699625e-02  4.3373264949856813e-02  1.6196116869028881e-01  4.0767555762814135e-02  3.7502693897288102e-02  7.5015382941627934e-02  1.6630344887903400e-01  1.6293927438298783e-01  1.5647327699509744e-01  9.2761078145928433e-02  4.9109854507126249e-01  9.8588011270223430e-02  6.6974762933508916e-02  1.6804651878178894e-01  2.6086684430710222e-01  3.4747863914479704e-01  2.5931443343439370e-09  1.2234357631735006e-01  3.7485566527270309e-01  1.0926188304278589e-01  3.1343311440135566e-02  1.5211804297166528e-01  -1.0693883508361059e-01  7.0077161626228324e-01  -1.1855651532124413e-09  -1.8661016271134230e-09  7.2884592965968553e-01  5.1652104721210894e-02  -1.0249443431563293e-01  1.0207354110307991e-01  4.2903488788358662e-01  7.3732401871381579e-03  1.3116110701863026e-01  1.1814553584005733e-01  1.1858139766151789e-01  1.6138056802882553e-01  8.5355037726260172e-02  -2.1417923009587228e-01  2.2959001294987541e-02  1.4096614471970104e-01  2.5449089332858367e-02  6.7227521057087436e-01  -1.7773028218276612e-01  6.9794410281769026e-01  1.4166163411482588e-01  4.0740756605562506e-01  4.4817836309388404e-02  1.5002443628695025e-01  -1.9673491748832569e-01  1.8657233867817782e-01  1.8964127719388477e-02  -5.2623908647009332e-01  -2.1051953639089918e-01  1.8168269854315369e-01  1.6566255910196406e-01  -2.7551538345714482e-01  -1.6192004462204102e-01  -1.3650144679846002e-01  -1.7094360408964895e-01  2.3984415972650927e-02  4.6587261530190709e-02  -5.1288291672893682e-01  1.0859625705107671e-01  4.9842969959485492e-02  1.7564123723256714e-01  1.0985925982933024e-01  -1.0136379945360795e-01  1.2280116071370983e-01  -2.9035349803925452e-02  -1.1105144053202094e-01  -1.4921711733978566e-02  1.7567533372090338e-01  -2.6144290693324768e-01  -1.1944228352286244e-01  7.1348415713341981e-02  -1.9879487987327726e-01  -3.3159927690452284e-01  6.3593274209290798e-02  1.4099170591546178e-02  1.2009750458692467e-01  1.0900973294468219e-01  2.5799700112001660e-02  -3.8289583871605459e-01  -2.9979209155410613e-01  8.9071645146504175e-02  -6.1343418043247933e-01  9.3920655515060425e-01  5.7922849741063903e-02  8.7174720960216046e-01  3.1248918109030219e-02  1.9872853479719246e-01  1.4555372430066746e-01  5.5523992475354379e-03  1.5487310431885686e-02  1.8588669495864938e-02  1.6257926377763066e-01  1.7727115287903564e-01  8.7115241787020861e-02  -9.3059416553005952e-02  -4.5631566865270701e-01  6.0660654756447260e-02  6.6938858251203770e-02  2.8884638700696633e-02  1.2192313413170970e-01  1.4919126952269049e-01  1.0751763614577789e-01  8.4833374080921661e-02  -2.0553908736191917e-01  -2.1963973270881459e-01  9.7170972107088222e-02  7.6715605865164224e-02  7.3491107581501139e-02  5.8647379593823497e-03  5.9713354981197724e-03  4.4759804846832330e-01  -3.5713139161391499e-01  -3.5267044069497003e-02  8.4343769539534499e-02  6.0130203757745464e-02  4.9609350599438516e-02  6.8948747552725023e-02  9.7222858366308215e-02  3.7922324675026139e-02  1.0048301628744580e-01  1.6279410716071291e-01  5.6376913615716139e-02  6.9264292831667712e-02  3.2385049653623860e-01  8.0235405821808894e-02  -2.0852815026934304e-01  -1.9438772293030615e-01  1.7001231140363685e-01  3.0583168926746040e-01  2.1322769026966351e-02  1.6564276596404409e-01  9.6452129952277588e-02  -2.0380109294816853e-01  1.4401541611564403e-01  1.5744978594005900e-02  1.0933311285307803e-01  9.1042198491181392e-02  -1.4800853381633938e-01  -1.8601052666449025e-01  1.6644044695743543e-01  1.5997320946554008e-01  1.5463913631757195e-01  1.5850368303609741e-01  1.8512086847340103e-01  5.8306197971050621e-03  4.4678727817719993e-01  1.3113605440206286e-01  -5.0414371187322796e-02  -1.5302253312270117e-01  -5.5157302189808965e-02  3.1367535252808276e-02  -2.9046675640006875e-01  4.5954157214703993e-02  6.9063185812380981e-02  5.1106751942776155e-02  4.6210884657913738e-02  4.0466784646560880e-02  1.5445815067179960e-01  1.0288925383456983e-01  7.2736525601581600e-02  7.9708330359802362e-02  8.1588526789698440e-02  4.8226105347735604e-01  4.5050748029488563e-01  2.4221155519239843e-02  1.1733636028675420e-01  6.1292933905721124e-02  -8.0021519762184759e-02  1.8439269088442575e-01  1.7464232264192106e-01  5.8441130686711806e-01  -1.6535277108488844e-01  7.2475411493934239e-01  -2.0588697842513071e-01  6.2906259640885087e-02  -3.7213146718087502e-02  1.5006540004094607e-01  -1.5674143477354072e-01  1.0606600356592302e-01  7.9320079314001990e-01  -1.4362323025423429e-01  2.4870422618817903e-02  1.1281411845856426e-01  2.7522547258243590e-01  1.0254367097258769e-01  6.2509815794366219e-01  1.0006803278142828e-01  -3.2194629696260732e-02  6.7539449423080405e-02  1.3750610486980500e-01  6.9760851293355283e-02  1.3555607449482324e-01  1.2419374186905383e-01  1.2557889019606394e-01  1.6435978324563189e-01  7.6725820561949279e-02  1.2863722228114852e-01  -1.7888845821717694e-01  3.3692440058795362e-02  -1.6895129912516041e-01  -8.2511851211012038e-02  1.5082081516187518e-01  1.4284495794664787e-01  5.5961164754595916e-01  8.9156878674041887e-02  7.9487252280735818e-02  2.6019735049794501e-01  4.6604506329773049e-01  1.6065931078934359e-01  5.2831195981677603e-01  8.5522949049966185e-02  6.9137051666495905e-02  9.0205256117068824e-02  -2.0950348118859541e-01  9.9781183979256685e-02  5.6613667513528032e-02  -1.3403624970791361e-01  9.5469844065407414e-02  2.0402213642840689e-02  2.5757674012092967e-02  1.3291063143302642e-01  1.3592693639621857e-02  1.2202295262315140e-01  1.2339238139531620e-02  5.4733564070998733e-03  6.3945564017582515e-02  9.7948649728475015e-02  -3.1861971564433123e-01  1.1835366842919424e-01  1.6288245363726539e-01  5.2233440400890480e-03  1.1854529950415275e-02  3.6243056865710374e-02  1.3541528758530976e-02  1.4811129731142444e-01  5.0976449310221258e-02  5.9370432533929061e-02  1.0739774296276528e-02  -2.1814261522919851e-01  -2.1684530705543817e-01  1.1407942801549797e-01  5.5638802038511716e-02  2.0285129928148883e-02  -2.1414640442781827e-01  -2.0295589893486962e-01  1.3943532792465054e+00  1.7070823562162757e-01  1.7150398738931369e-01  1.5505171130703088e-01  1.5887498946555856e-01  1.3306595339161162e-01  1.2818668319023171e-01  1.2314411226771567e-01  1.5674124893052740e-01  1.1465661713777330e-01  1.1638527557001571e-02  1.4922142788188006e-01  -5.2901613026134553e-01  -2.2170067608196667e-01  5.1608726086077125e-02  -3.1657696900095139e-01  -1.8390818841981751e-01  1.4434554543528053e-01  -4.5059278961501675e-01  -5.6837426448462702e-01  1.1766326419961276e-01  7.7391573199734789e-02  3.0810320131352688e-02  2.5460314637444685e-02  3.5761881632084304e-02  1.3831076288556376e-01  -1.8798846516815135e-01  1.6114945351588733e-01  1.6217628036092099e-01  1.5817977615361592e-01  1.5559217712101456e-01  1.2861260896745588e-01  4.8350478025656748e-03  1.5642912930836212e-02  1.1815832613846648e-01  1.0761210795080085e-01  6.6787331824523941e-02  1.6633253553000632e-01  6.6451412676053243e-02  -1.0587211963026644e-02  1.2848314689871407e-01  1.2508502754802578e-01  1.1832483883589566e-01  1.6123072820627674e-01  4.7075264249165655e-03  1.7159904016688873e-01  -2.1383808217868361e-01  -1.9504668504248068e-01  -1.6907061013470975e-01  4.1424413930772214e-01  1.2128109038488674e-01  2.3298420139291506e-02  -1.6001841682277038e-01  -1.7469485633310933e-01  3.3067535379752704e-02  -6.1058681221568781e-02  -1.3736424271518149e-01  -1.9825511614606547e-01  -1.0140627894653152e-01  1.5017024788060085e-01  8.6847412794995735e-02  3.6336372577014414e-02  1.3899925229924875e-01  2.5377983618432916e-02  3.6029506778664219e-02  1.6749948987550287e-01  7.2100676024325502e-02  -1.0340271266192450e-01  2.8195546031633406e-02  1.9011854427553854e-01  2.0351776332830152e-01  2.1960615700724101e-01  1.1367108483146005e-01  1.5388622933218846e-01  3.9793167447434420e-02  1.0308774306553181e-01  -4.8556731505414497e-01  -4.0873223882683024e-01  -1.7297183448755263e-01  1.7040262384708876e-01  1.2915504873240571e-01  1.3236756651793635e-01  1.7493147758427152e-01  4.2363715228684101e-01  1.5335729892666092e-01  9.8680325300412611e-02  1.0525633951124926e-01  -1.0815886634345781e-01  4.3473585040304477e-02  3.2115314677444584e-01  1.1313114619424565e-01  1.1527837552299411e-01  7.4429815576223080e-02  4.5876488984493209e-02  1.6739539211387017e-01  -4.8814513398164609e-02  7.3642443751960260e-02  -7.3614197788887198e-02  5.5402436129010350e-02  7.9358978213167355e-02  1.3223625550991611e-01  -1.0757161023743837e-01  4.0925277248626414e-02  1.0515534736120134e-01  7.6593565043256062e-01  -1.2993733202151017e-01  1.7924275587410285e-01  8.9469503285433752e-02  -3.9960128189286570e-01  7.1767584229314327e-02  2.0448580134473805e-02  1.6708774274744657e-02  1.2485897454170371e-01  8.2991629394222011e-01  1.4225542856862261e-01  1.7050677794608746e-01  4.1099947550184084e-02  4.2589365016274104e-02  3.9202582138642283e-01  1.6957836269906965e-02  3.5760817740213335e-01  1.4098673955059413e-01  2.3908254735853559e-02  -6.3250579595099132e-01  -6.6659026436398539e-01  5.9003949881337003e-02  -4.6451547857185305e-01  1.4156351366101816e-01  5.4690205652979072e-02  7.5018910519740425e-02  5.3317164218445713e-02  3.5581017898236436e-02  1.7535080370823533e-01  4.7255751193719334e-03  2.1530679143187154e-01  1.2521380822839737e-01  9.4051861655390617e-02  -2.4247224916694771e-01  9.2257010195224184e-02  8.3108797567020859e-02  4.3540682403498988e-02  4.9558765939923421e-02  -1.7871512034020445e-01  -1.6282132514826995e-02  -3.4019251982187311e-02  1.8041080884324295e-01  9.4728401419672606e-02  -1.4748401725019303e-01  -1.2978685610651497e-01  -1.6611394800561166e-01  9.0026783580391054e-02  6.1414018817017146e-01  9.9528012901014026e-02  -7.0334146265691498e-03  -1.2408842262365162e-01  1.2818219936968056e-01  -3.4048057291222339e-01  4.8634003289917051e-02  -4.8589349254409053e-01  1.6044053387995524e-01  -1.7365197219442963e-01  -2.0441396242105456e-01  -2.5791975986490456e-01  3.8713687213248235e-02  1.4477963365816196e-01  9.4814891054958425e-02  5.8041537532709998e-02  1.4912498708084165e-01  3.8403143751595904e-02  1.1529855971723235e+00  6.7618192496613855e-02  1.6060859099833361e-01  -2.4638014289542570e-01  1.4010226733230630e-01  1.4553475194547824e-01  8.0175088339375769e-02  1.0833067899099377e-01  6.0671060106087429e-02  5.4271684645322428e-02  1.5889050664216125e-02  1.0501741559611708e-01  3.3794946780542547e-02  1.4125226962093679e-01  1.0337971743575997e-01  4.8530978968593486e-01  4.8356956844950832e-01  9.8453085314156488e-02  -2.9180505232042725e-01  4.4883871729001767e-02  1.6824790259014927e-01  1.7010750364999985e-01  1.6614894702628036e-01  1.3539095461768325e-01  2.1156718257952709e-01  6.3045242013428104e-01  9.8655301435051038e-02  9.7080749616563211e-02  9.6402733656252390e-02  2.6725345196849259e-01  -8.6305582803036227e-02  3.2702227392663576e-02  1.2776524597777145e-01  -1.5961683958888817e-01  -1.4643946109735143e-01  -4.7512810184814158e-01  1.4131274687903414e-01  5.4042602322895629e-02  -1.6047248181544344e-01  4.6806566477701367e-01  7.7945050973253949e-01  1.4826490033319966e-02  -1.6531031143393909e-01  5.5485939256739815e-02  1.4512198274589616e-01  8.5117402231912817e-02  4.7924198328241970e-02  -1.5414793160607200e-09  -2.2756729222359748e-01  8.2354079311838441e-02  5.1656371763548897e-03  -2.0339885056508678e-01  -1.8780030776254525e-01  2.0220835900939212e-02  -4.6447233567794212e-02  4.1428388166272784e-01  4.0016993652316202e-01  4.5354180715673813e-02  1.2052228712545071e-01  1.1171309296402733e-01  1.0846283231078732e-01  1.0536590607795085e-01  1.1369813286875480e-01  4.9143048642442760e-02  -2.3286198724005203e-01  1.2262347027200962e-01  1.1647039972573633e-01  1.6484672392466804e-01  1.6509952405597472e-01  5.9911816849304050e-02  -2.9533693519308796e-01  4.8370697789769997e-02  -1.4054231953056956e-01  5.3832631719001496e-02  6.4560824613466075e-10  1.4127013452930773e-01  1.3731055897647679e-01  1.3743163173753828e-01  -8.7642044246739659e-02  7.0179957882369831e-02  1.6574462416147845e-01  1.6028255976790917e-01  1.8096864637438873e-01  1.6986769950872349e-01  1.6085440944210813e-01  2.8645288925801107e-02  1.6926852596030942e-01  1.6876457341775641e-01  1.6745860728785769e-01  1.0738835584818460e-01  8.3690548132570527e-02  1.4720084036344719e-01  4.2294679192971402e-01  1.7244372145642825e-01  6.4221371831125321e-02  9.8276418871191623e-02  9.4646639718335823e-03  1.0395682748491345e-02  4.3215582224188243e-03  -1.8378045223467862e-01  4.8907383679818971e-02  3.1665073300950419e-02  1.5152143592724146e-01  -1.4610466016693574e-01  1.3496481529413656e-01  6.9343879208399406e-02  6.3589176609261860e-02  -1.4786184729875834e-01  -1.6970368998599825e-01  9.0616497106197680e-02  -1.4498622560436958e-01  -1.4005729293220301e-01  -1.6603383486355239e-01  1.5197907508792688e-01  1.5501791754882449e-01  1.2871620618906782e-01  -3.6245734802047108e-01  1.4644527013826325e-01  -2.2720600683540301e-02  1.3681740115916893e-01  3.4231968419817954e-01  1.2719546264308398e-01  1.6171656849971500e-01  7.7531446521875739e-03  -1.5414793160607200e-09  1.1079640067685683e+00  9.0751715112483577e-01  1.6266254463333393e-01  1.1733064399583965e-01  -1.0790203038013817e-01  9.3021053132346543e-02  8.8432625694518943e-02  -3.5935181681652821e-02  4.1699517861309474e-02  -1.3616149833228305e-01  5.4870873936916198e-01  4.9344659872534730e-01  4.9832413413945681e-01  3.8630292742979744e-02  1.6449473967034653e-02  1.0012173655798337e-01  9.4805240507116265e-02  9.3191660101378096e-02  1.2714963660684575e-01  5.6389148440148540e-01  1.5056175726447865e-01  -3.2802867808879377e-01  8.6818887802878261e-02  5.7279469623684361e-02  6.2801714935537975e-02  4.1330049400223487e-02  3.9521811491698026e-02  -2.5440192077095686e-01  7.0660829427225888e-02  -1.9474238965891871e-01  6.5763374665364208e-02  1.5117149530300752e-01  1.1474737112423536e-01  1.6593409713031188e-01  1.6222527591648