<?xml version="1.0"?>
<VTKFile type="UnstructuredGrid"  version="0.1"  >
<UnstructuredGrid>
<Piece  NumberOfPoints="2426" NumberOfCells="4534">
<Points>
<DataArray  type="Float64"  NumberOfComponents="3"  format="ascii">0 0.41 0  0 0 0  2.2 0 0  2.2 0.41 0  0.2404508497187474 0.2293892626146237 0  0.25 0.2 0  0.2404508497187474 0.1706107373853764 0  0.2154508497187474 0.1524471741852423 0  0.1845491502812526 0.1524471741852423 0  0.1595491502812526 0.1706107373853764 0  0.15 0.2 0  0.1595491502812526 0.2293892626146237 0  0.1845491502812527 0.2475528258147577 0  0.2154508497187474 0.2475528258147577 0  0.5404508497187474 0.2293892626146237 0  0.55 0.2 0  0.5404508497187474 0.1706107373853764 0  0.5154508497187473 0.1524471741852423 0  0.4845491502812526 0.1524471741852423 0  0.4595491502812526 0.1706107373853764 0  0.45 0.2 0  0.4595491502812526 0.2293892626146237 0  0.4845491502812526 0.2475528258147577 0  0.5154508497187473 0.2475528258147577 0  1.1 0 0  0 0.205 0  1.1 0.41 0  0.55 0 0  0.55 0.41 0  0.275 0 0  0.275 0.41 0  1.65 0.41 0  1.65 0 0  1.375 0 0  1.375 0.41 0  1.925 0 0  1.925 0.41 0  0.8250000000000001 0.41 0  0.8250000000000001 0 0  1.5125 0.205 0  1.7875 0.205 0  0.9625000000000001 0.205 0  1.2375 0.205 0  2.2 0.205 0  0.7560964076246335 0.2151713709677419 0  1.99375 0.2152743902439024 0  2.0625 0 0  0.6875 0 0  2.0625 0.41 0  2.2 0.3075 0  0.6875 0.41 0  1.7875 0.41 0  1.375 0.1486128048780488 0  1.5125 0 0  1.7875 0 0  1.5125 0.41 0  0.9625000000000001 0 0  0.9625000000000001 0.41 0  0.4125 0 0  0.1375 0 0  0.1375 0.41 0  0.4125 0.41 0  1.2375 0 0  1.1 0.1486128048780487 0  1.2375 0.41 0  1.65 0.1486128048780487 0  1.126715909090909 0.2793064024390244 0  1.676715909090909 0.2793064024390244 0  1.348284090909091 0.2793064024390244 0  0.34375 0.3032389320646208 0  1.894702181800738 0.1282910975492754 0  2.092797818199262 0.1282910975492754 0  1.85625 0.3075 0  0.8630851210521902 0.286932093388664 0  0.89375 0.1025 0  0.35 0.1090282786671641 0  0 0.3075 0  0 0.1025 0  0.6526217841291382 0.288229645480046 0  0.7562500000000001 0.09660248895515888 0  0.6568633732316684 0.1557582854763441 0  2.099172119769978 0.25625 0  1.002356446954348 0.1010393851523063 0  1.99375 0.08395950269330846 0  1.459960956013612 0.3075 0  1.569025960719943 0.2986889805672169 0  1.03125 0.3278689922742084 0  0.75625 0.3247156761655783 0  1.959375 0.3126371951219512 0  1.749222215368287 0.1025 0  1.275777784631713 0.1025 0  2.2 0.1025 0  1.225938124459196 0.3075 0  1.550777784631713 0.1025 0  1.44375 0.07430640243902442 0  1.16875 0.07430640243902437 0  0.3528655045338512 0.2063263890916129 0  0.5890337614812103 0.08775733857679162 0  0.8504912436891263 0.190072835691683 0  1.899250267340833 0.2229966846119207 0  0.1020898364287272 0.3140258291809757 0  1.766482954545455 0.2934032012195123 0  1.051658316544432 0.2265720188842194 0  0.2 0.3400647632937836 0  1.421109702350723 0.2261157654379721 0  0.4812500000000001 0.41 0  0.4324401666997539 0.3216425986889796 0  0.098916018031319 0.09171660955420841 0  0.9508742791313441 0.2921736960864468 0  2.13125 0 0  2.118919042110979 0.3422084711244843 0  1.30625 0.41 0  0.20625 0 0  1.597888256393107 0.2173787389261347 0  0.4812500000000001 0 0  0.4324082967851086 0.08384041677422771 0  1.829299675393195 0.07400700849299596 0  0.568219932524165 0.3212274660843853 0  1.71875 0.41 0  0.268005226542646 0.08512186835670006 0  1.16875 0.41 0  2.038220665644273 0.332420740103091 0  0.6678017527842831 0.07701763866051195 0  0.89375 0.41 0  0.5111435174287687 0.07335351331957608 0  0.176193934632343 0.0734896648625108 0  0.07390688010811153 0.1697064032433452 0  0.05452951551825875 0.25625 0  0.61875 0.41 0  1.452769549894695 0.1548122580621249 0  1.369219062229598 0.07430640243902442 0  1.30625 0 0  1.720943423819132 0.1714577452753128 0  1.157188124459196 0.205 0  1.094219062229598 0.07430640243902437 0  1.304056576180868 0.1714577452753128 0  1.67579304192913 0.07430640243902437 0  0.2672907219039591 0.3037570723459566 0  1.209670467133757 0.1362100266964769 0  1.58125 0 0  1.03125 0 0  0.06875000000000001 0.41 0  0 0.35875 0  1.58125 0.41 0  1.631724228912893 0.3381867502687533 0  0.8240147050827157 0.1225233169495944 0  1.825608881788174 0.14499488549201 0  1.85625 0 0  1.44375 0 0  1.44375 0.41 0  1.85625 0.41 0  2.13125 0.41 0  0.7562500000000001 0.41 0  0.7562500000000001 0 0  0.89375 0 0  0.34375 0 0  0.34375 0.41 0  0.20625 0.41 0  0.06875000000000001 0 0  1.16875 0 0  1.03125 0.41 0  0.61875 0 0  1.71875 0 0  1.99375 0 0  1.99375 0.41 0  0.3972301426712326 0.2593842555611471 0  1.340625 0.3489494290853124 0  1.134375 0.3489494290853123 0  1.700180620188976 0.3438659752031281 0  0.5003922072260507 0.341765274319271 0  0.6212513815748759 0.2209216137134851 0  0.6885607720119526 0.215393731583638 0  1.033412357328477 0.1612902025713047 0  2.135782184673599 0.07126652247502523 0  1.668441847249787 0.2129203728327609 0  1.295782514339747 0.2378437748815763 0  1.409375 0.3520314716057996 0  2.129248544730567 0.1906135162504124 0  2.060771381434487 0.1989445750470348 0  2.013252586573865 0.1496169464686054 0  1.942766402200229 0.1734448904596831 0  1.895522487186454 0.06076163953489683 0  2.069553871656643 0.06605731020975725 0  0.9281250000000001 0.3539050257418612 0  1.274680914880868 0.3520219391081363 0  0.3030138498135347 0.2488370856812789 0  0.8223773249563684 0.341761430177996 0  0.9018164060227267 0.2326477848736739 0  0.8143027982392851 0.2440265179987191 0  0.7225087161029304 0.2699907246386231 0  1.614713220494657 0.09473434380863296 0  0.378125 0.3566194660323104 0  0.309375 0.3566194660323104 0  1.72990325744076 0.2380068107952482 0  0.6915936999299305 0.3429472631234433 0  0.6268087624932918 0.3466455500035671 0  1.356580098625191 0.2120393231351682 0  0.3060160055995138 0.1590148921620778 0  0.3954648733249218 0.156380553890791 0  2.034370752044885 0.2668681600792073 0  1.51768709249349 0.3426260931494756 0  1.561883724969884 0.1650446847858835 0  1.197344062229598 0.2523725417393646 0  0.9281250000000001 0.05124999999999999 0  1.804085235518364 0.3468178408964637 0  1.817887819205233 0.2589243285818559 0  0.9107805776841645 0.1653834539923287 0  1.905897727272727 0.3485060975609756 0  0 0.05125 0  0.844212276491354 0.0614201194265309 0  0.378125 0.05244637078450034 0  1.008571329007178 0.2705955969954818 0  0.7724048032149464 0.1559079561351474 0  0.7203054377831548 0.04941826955193545 0  1.192836486056382 0.3562350748565544 0  0.5967108020713719 0.1479294686523888 0  1.28257088594801 0.2944411014911587 0  0.7041890234548132 0.1222025174424443 0  1.474860187679412 0.2504218616229368 0  1.406767003493824 0.2829282258560709 0  0.3201325899091991 0.05890121548989159 0  0.5979220912872258 0.2727591995766724 0  1.845656689180403 0.1998310418452388 0  2.144958525570388 0.2909790873294231 0  2.2 0.15375 0  1.57794966442982 0.3540357145964566 0  0.9483181579620558 0.1214693369582054 0  0.0496154796471391 0.333125 0  1.508991196088596 0.1421783375065625 0  0.09776612425612034 0.2204896805326566 0  1.50436820029908 0.06143401634903343 0  1.223857000523521 0.0823554862453532 0  0.2531953886959507 0.3582003209055908 0  1.153316824384777 0.1289850171317837 0  2.148922302309752 0.1258841779285271 0  1.621993280276081 0.2841214267927899 0  1.550118654119087 0.2461998729100966 0  1.327182649291491 0.1216967252533594 0  1.753125 0.04556020050186112 0  1.271875 0.04556020050186116 0  0.9824282234771738 0.05051969257615314 0  1.039510847866381 0.05683351822678641 0  1.94956388244759 0.1180512551534177 0  1.949997712993411 0.04965831614304109 0  1.771961817615021 0.1530278789497521 0  1.909246823951428 0.2812757146784527 0  1.101974016627944 0.2038045618205013 0  0.7906250000000001 0.0444674049654372 0  1.948575539857022 0.2445328248721197 0  1.697271520964565 0.1233917627620729 0  1.065625 0.3689344961371042 0  1.085849084308977 0.3170853572226867 0  0.9840604787624379 0.3582077516409966 0  1.577403511714593 0.05463601888079143 0  0.05622663515370135 0.05493816910862376 0  0.8762396958822678 0.3392249777398821 0  1.751571320346033 0.3651102912045228 0  1.055327852410105 0.111864799513911 0  0.1583785085108421 0.2994699345738728 0  0.1455283439499995 0.3542795598723423 0  2.2 0.35875 0  0.225705107073232 0.05084786997482401 0  0.1455852234589313 0.1166494778469164 0  1.466879772203159 0.3611261772912453 0  1.990280163552011 0.3564754268533217 0  1.17471064520912 0.2990917256188288 0  0.7221925551074015 0.1739659241003985 0  0 0.25625 0  2.2 0.25625 0  2.2 0.05125 0  0 0.15375 0  1.853978576207987 0.35875 0  0.21965520498276 0.1015543880164422 0  1.515638456102889 0.2882700110184686 0  0.09048297387599738 0.3637717362208066 0  2.150453692751374 0.2387066338105111 0  1.323782677156475 0.04897634338873398 0  1.409375 0.03715320121951221 0  1.406484531114799 0.1087852750766809 0  1.134375 0.03715320121951218 0  1.627401732573545 0.04552157221025036 0  0.446875 0.3713289093361426 0  2.045405893604797 0.1105340662939892 0  1.255408269734577 0.1577307500159216 0  2.028125 0.03707597992059326 0  0.04420832937638274 0.128125 0  0.5817551710628505 0.3702615006034757 0  0.1197849154434487 0.2663398672460083 0  1.248258025468107 0.2565907092181813 0  0.1300647302703173 0.0508462728378621 0  0.7738123537510222 0.2761231499240648 0  1.203125 0.0366132337404304 0  0.5444207041612499 0.111205399508622 0  0.8016457771828226 0.1964238426015905 0  2.072662025974815 0.2975086504196739 0  0.4019040438866802 0.2103993403217561 0  0.4677372330974851 0.04827477407630658 0  0.8677218578847617 0.1432970430140788 0  1.058011122005847 0.2758866204059919 0  0.4429405887974043 0.2746184809910084 0  0.5843750000000001 0.03726989681835222 0  0.6318596133730142 0.1128692182767254 0  0.4862628454464408 0.2957029785303028 0  0.7805186758662764 0.3673578380827891 0  1.887722846421017 0.1760882698830035 0  0.3498893058880703 0.256189258793856 0  1.472640588990488 0.1118278026240017 0  1.865937103925594 0.2604137786483804 0
[...]
<PointData  Scalars="f_43"> 
<DataArray  type="Float64"  Name="f_43"  format="ascii">4.4167526840389110e-01  4.7196741617981042e-01  1.2387428318118405e-09  6.6746371109561176e-10  -3.4264650574757999e-01  -3.0662943238712287e-01  -3.2961532043898695e-01  -4.9707675750915625e-01  -9.1458966780795836e-01  8.8123883444215856e-01  2.0154426570922497e+00  4.1943305694595534e-01  -1.1390379934598067e+00  -4.8969814010020751e-01  -2.5879475926092288e-01  -2.3612627342421844e-01  -2.7340480455103772e-01  -4.4183571326147725e-01  -1.1071178554029119e-01  -8.8271033740591934e-02  -2.7400880231014624e-01  -1.2358124796392667e-01  -5.5329894353360894e-02  -5.0060105074204286e-01  1.1554893329378582e-02  7.8368084807616534e-01  4.4879313697554930e-04  -1.8348775433765552e-01  -1.7908030982643358e-01  1.8866341866596522e-02  4.0137448320163194e-02  2.5107194585624430e-02  2.9688466681300259e-02  2.3039451362582477e-02  3.9413441153018265e-02  1.8328509257739847e-02  1.4345770739560011e-02  -7.3833350122793587e-02  -6.5186560427043086e-02  2.9417664604064003e-02  2.3859363358945639e-02  3.4053375885764813e-02  2.7333963132048021e-02  1.3750034519587862e-09  -5.0817306092544159e-02  7.9896318426011560e-03  9.9735162700420425e-03  -1.3029376282054519e-01  8.1871569965039012e-03  1.0062692574162547e-09  -1.3253519460084054e-01  2.8454303806581701e-02  2.3034694304167193e-02  3.5723450254790651e-02  2.2185758242369083e-02  2.7011443160021398e-02  -2.9373017655353256e-02  -1.8610168360043578e-02  -1.7496136295146050e-01  3.8871286289252455e-01  3.6644525866639488e-01  -1.5717740342124134e-01  2.9397144616663404e-02  3.0704828919464310e-02  1.3915463291462215e-02  3.1468780884128654e-02  8.9954628256558554e-03  2.6940494806219066e-02  3.8782543287851121e-02  -2.3575005409446667e-01  1.9219821150436963e-02  8.2023684276680588e-03  2.2618530257031321e-02  -1.1764623087121560e-02  -1.9796514697859438e-02  -2.7791447717408024e-01  5.3825261344028863e-01  5.7191660546604794e-01  -1.7265242620830343e-01  -7.5637500290867299e-02  -1.8366224885443388e-01  7.3321275798946340e-03  -6.5523592547151368e-03  1.4290147647052330e-02  3.5883962285650710e-02  2.0573345971860654e-02  4.2246931625241988e-03  -9.2308412695824682e-02  1.0299108464489014e-02  2.2598147868698799e-02  2.8085216306431120e-02  -1.0968570246367943e-09  1.2104593452064882e-02  3.6503263591685382e-02  2.7855988085134193e-02  3.0036182717501768e-02  -3.3530911134677993e-01  -2.0180112872858313e-01  2.2367250042369474e-02  1.7210030450580321e-02  4.8172194554009778e-01  3.0193001054498743e-02  2.5854248729979667e-02  1.7017068685578599e-01  3.6775176333828312e-02  -1.7986805838258299e-01  -1.9569158400391645e-01  5.1049946059158080e-01  7.7854256079082406e-03  5.1112339499752111e-03  6.7125594097926988e-03  3.0162148536990594e-02  2.1640479816788885e-01  2.2688089286679446e-02  -1.8922788156155376e-01  -1.9443473912234657e-01  2.0628136043831645e-02  -2.0396436212529712e-01  2.9802965756376820e-02  -1.3051959079033776e-01  2.9261333777772557e-03  7.6588012425376330e-03  -1.4249521931452921e-01  -4.4860605946297670e-02  -2.0388707646520032e-01  2.3308334535022654e-01  9.1611460898778452e-01  7.3876936342845845e-01  -1.6051532969176799e-01  3.0267084783264207e-02  2.0231471172529627e-02  2.4277070835151706e-02  2.4977550957176985e-02  2.1675182004436792e-02  1.1795217554425188e-02  2.6231003544452965e-02  2.7763245691661099e-02  -1.6794296264535621e-01  3.2853988259979892e-02  3.4934421294733953e-02  -1.0772324558004032e-02  4.2950623768402424e-01  4.5384787502439344e-01  2.1942401999063652e-02  2.1484234092806694e-02  -2.1093312480713496e-02  1.9730220821894941e-02  2.0811924348281659e-02  2.9391818506317450e-02  3.6525850648190729e-02  2.1779461188451182e-02  5.4478837746794713e-03  -1.0286258532151175e-01  -9.5341629944726156e-02  -4.4416469513600010e-02  -1.1907442469291453e-01  -8.8174163712089818e-02  2.1638732179289277e-01  4.5765274808755452e-01  2.7160710573069371e-02  -3.2290875842396561e-03  -1.6014890370040885e-01  2.4873754809692162e-02  1.4235257137915633e-02  9.6961729906850196e-03  -3.1848049862758510e-01  3.7817689445933181e-02  6.7352952165374903e-04  2.9241736476174209e-02  -1.9343950013088801e-01  -2.2139594466450088e-01  -1.3823320324856520e-01  2.4281332155090929e-02  4.7386142001970008e-03  2.6807688911567505e-02  3.5509085216718111e-02  4.1343932347971270e-02  4.3049941261661950e-03  7.9911333468766065e-03  1.3494275780895796e-02  1.6147290512820871e-02  1.9885323588319515e-02  9.7334091371323421e-03  -2.7572820426280353e-02  2.1971077271643377e-02  -3.3392016021438625e-01  -6.6701897168079838e-02  3.7219145051305760e-02  -7.6175643680830461e-03  -1.0468668487528637e-01  3.3397427478873615e-02  -1.4799389061167278e-01  -6.5156161430106690e-02  2.9631309913376532e-02  -1.2905032259359003e-01  -1.6185678421057825e-01  3.3667286280744335e-02  -3.3197858740857766e-01  -3.5236471056536151e-01  7.7814942494079335e-03  2.5689948813155367e-02  3.4075860659756152e-02  1.7322815005684163e-02  -3.4724059919568950e-02  2.8116219111684933e-02  2.6725513186980385e-02  1.7991192638044200e-02  1.5864849458700803e-02  4.8489595398017893e-01  -5.1340869830626842e-02  -1.7076050626486564e-01  2.1110651593157757e-02  -2.5640633140503900e-02  -1.0941170121350691e-01  3.6757389335969341e-03  -2.3833660574509516e-01  2.7281102491988750e-02  -1.1237706796090334e-01  3.1942061305734432e-02  3.9587725719283651e-02  -1.1399055638032139e-01  -2.2845978784739418e-01  2.0575855381782512e-02  4.9761988204705798e-03  -7.8601954869143336e-10  1.9938849176472404e-02  -2.7257664751442665e-03  4.7725889650219738e-01  3.4506598924859862e-02  1.1358308137500237e+00  3.5977695181472300e-02  3.2724194279476301e-02  5.0072033757635963e-02  3.1627258087083908e-02  3.4908460170491071e-03  2.1881796201580424e-02  2.1845594985608043e-02  2.3052683245557773e-02  2.2709899701297331e-02  2.7319694745259932e-02  -2.4399301678017769e-02  -8.3083471823491521e-03  1.6992175614035761e-02  1.7016951627810882e-02  2.0520975645871395e-02  1.5965041464583749e-02  2.3842047698874120e-02  -7.5461521110620142e-02  1.0403805966883461e-02  2.6840404432643471e-02  8.9720153273839336e-04  5.6787622134434864e-03  -9.1714040771188939e-03  3.5837060809994305e-02  4.7807041993572769e-01  -4.3802054290543152e-02  3.0774075662753288e-02  1.0327616738647643e-02  2.4943335093213700e-01  3.4082693256256635e-01  -4.8459111267695025e-09  1.1813296023687977e-01  3.5647652951766795e-01  3.4176177900633722e-02  9.0090640339987593e-03  6.6764839588645264e-03  -8.3329208993216594e-02  6.8945236110423946e-01  1.0062692574162547e-09  1.1117671611081304e-09  7.1555397736893600e-01  2.2217696955969517e-02  -1.2089836143504334e-01  2.6475046573721638e-02  4.2086239473104592e-01  4.8378213786667264e-03  2.2097304528795918e-02  2.4480643261572455e-02  2.3643503812667343e-02  2.1245570240055626e-02  3.1696662645263385e-02  -1.7307796783298224e-01  1.1538564981689118e-02  3.0411930053310988e-02  1.2084768759431597e-02  6.5875439071301500e-01  -1.7239196492194847e-01  6.8518280819560662e-01  2.6674687064898939e-02  3.9426352526035702e-01  -5.8074017335738116e-02  3.0760616821819697e-02  -2.5996689300559644e-01  -6.6458180605101394e-04  7.3845045833474156e-03  -3.1362915099412547e-01  -1.8703122759954494e-01  4.4165847820232494e-03  1.4374307582551565e-02  -1.9703482265649122e-01  -1.7388384901411852e-01  -1.8963808068324400e-01  -2.0496933071715717e-01  -8.9959316542360820e-02  1.8510135246376621e-02  -3.3765018135300418e-01  3.1781546971611965e-02  2.1581780389475544e-02  1.4371576590997286e-02  3.1400616060491604e-02  -1.1136468671939939e-01  4.2064495836122387e-02  -1.1752975466072442e-01  -1.5586759986144685e-01  -1.0994927757494798e-01  3.0210755358176567e-02  -2.0511373103006947e-01  -1.7934135047351163e-01  2.9767448137333175e-02  -2.7003958975529330e-01  -2.1997146551628008e-01  2.9332154187695688e-02  7.0747299729135944e-03  2.6460397859528830e-02  -3.6729356855732490e-02  8.8105369161644385e-03  -3.2702601256192881e-01  -3.3884317272596071e-01  3.4175614564235617e-02  -3.4289864116236696e-01  9.2348144651801234e-01  2.7530044757745953e-02  8.5881552417503304e-01  8.1818344893798464e-03  2.0725742871033549e-02  -1.1784755126276268e-02  3.7552473364009988e-03  7.1434347202151182e-03  7.8258425700258906e-03  4.0483054184797893e-03  3.4287687615316163e-02  2.2675684719952301e-02  -1.4163189556907402e-01  -2.7073267209829976e-01  2.0754635432093060e-02  -5.9350063635875208e-02  7.6642275385773269e-03  4.0105848232040900e-02  3.1774271352492965e-02  3.3081162673310530e-02  2.8590764566706787e-02  -1.8236316806455363e-01  -1.7994826538808767e-01  2.3569822299401265e-02  2.7124240201303305e-02  2.5182273259149901e-02  2.9571267651090005e-03  3.6453524337092679e-03  4.3918105934608670e-01  -2.8433399563730388e-01  -1.9397453363479943e-02  2.4161315465248252e-02  2.1506706066650706e-02  2.0171323860686902e-02  -5.6847647445460711e-02  3.6221403511584552e-02  1.2026084751864671e-02  -4.0766497302131978e-02  1.4492241579784510e-02  2.5487931869689586e-02  3.1310513440335648e-02  3.1249779350770729e-01  2.5679548771697421e-02  -1.8901897690893124e-01  -1.8683201596919985e-01  3.4714083980233643e-03  3.0144019334903710e-01  1.0831526876030192e-02  -2.5262997233195120e-03  2.6206170623213551e-02  -2.2982297127762852e-01  1.1810567956633791e-02  7.3620871816336636e-03  3.1942249044473361e-02  2.1275565377536793e-02  -2.4637431061653858e-01  -1.5102412747732177e-01  2.8636528498307900e-02  2.4359924074483289e-02  1.2407063563253478e-02  3.2054105670343523e-02  1.6878939008819139e-02  1.3290129043450306e-03  4.3365823794762753e-01  3.4527372905358476e-02  -1.3020205212138300e-01  -1.9074965990237913e-01  -1.1358345309079260e-01  1.4474601133406283e-02  -3.1998768512385106e-01  1.7831442842481678e-02  -5.3664676827923960e-02  2.0779123305886979e-02  1.9872841502560201e-02  1.8390146568643954e-02  -2.3209597493901911e-02  3.5584742336696978e-02  2.4951460875363419e-02  2.8387499732921539e-02  3.0414909729212517e-02  4.6929186523983402e-01  4.4202859402324235e-01  8.3173422143496493e-03  2.6087828162855851e-02  -6.1750150881496761e-02  -5.6474607836328190e-02  6.7031809428798632e-03  2.2206686989370977e-02  5.7409599609503004e-01  -2.2310089489996354e-01  7.1037931550299183e-01  -1.5808938103087447e-01  2.1300716634149178e-02  -6.7418531845890348e-02  -1.0293927087322265e-02  -2.4059445303324356e-01  3.2275512474618441e-02  7.7976518102820847e-01  -1.6841113758318385e-01  1.1978758588220267e-02  3.6169843492404027e-02  2.7167548952338672e-01  2.6069377321936916e-02  6.1455895672689442e-01  3.6488697017713324e-02  -1.0489218800406812e-01  2.5716685622985389e-02  3.0617548503274195e-02  2.3634914158891417e-02  2.5751805168727167e-02  2.1689652466683119e-02  2.1471668917235006e-02  1.8895271779044431e-02  2.8376429663295996e-02  2.2627208062787060e-02  -1.7902994395519520e-01  1.5689881515173490e-02  -1.9551697941670154e-01  -1.4670078554907920e-01  3.2758409803690658e-02  3.0793993014340812e-02  5.4621040602297366e-01  1.9249076881561349e-02  2.5073891013093146e-02  2.5058262971326500e-01  4.5284470344685435e-01  -9.3126653663530481e-03  5.1525126804872456e-01  2.2547424609439981e-02  -4.1227937542161627e-02  3.0732453875499850e-02  -1.8860425401802072e-01  2.4736499351791001e-02  2.1501298819306233e-02  -1.5616658716551490e-01  -4.3211562187128495e-02  7.6389679281840270e-03  7.1431191984149215e-03  2.3428722555630815e-02  6.8513400783709955e-03  -2.9388191355778918e-02  6.3026231285656627e-03  1.9856729286405355e-03  3.0896439954831895e-02  3.7357338325174391e-02  -3.2597156221711382e-01  2.2973585236846374e-02  1.6113584188692976e-03  2.3630141966565362e-03  6.2908425021779065e-03  1.1320757505557064e-02  6.7644441966036766e-03  2.0856150036380441e-02  1.9817813082862224e-02  1.9880299998311542e-02  1.3409576769288676e-02  -1.8600853939487541e-01  -1.8006465358135379e-01  1.1450981289981055e-01  -6.9684373329104723e-02  -9.3299125211324704e-02  -1.8251565262334607e-01  -1.5820044375344408e-01  1.3802462650358158e+00  -1.6792321119326624e-02  1.7348956408500077e-01  1.4562836975673056e-03  1.1472165831657888e-03  3.0668669819845285e-02  3.6193981592832727e-02  4.0490119069882091e-02  3.5116707690887906e-03  2.7905819004372622e-02  5.0898253196568176e-03  7.3612902687038694e-03  -3.0927969493546836e-01  -1.8555764976448674e-01  1.9498752055889020e-02  -3.2214265446952051e-01  -2.4941566697785367e-01  2.9969102119216197e-02  -2.7465818058627361e-01  -3.3364331947843312e-01  4.1760634998649328e-02  2.7871632529410103e-02  1.2421441999666256e-02  1.0419381493308340e-02  1.0499048099442576e-02  2.2015775225589465e-02  -2.0887895915226334e-01  7.3906030304661443e-04  1.0455523769098822e-02  1.5100102458853359e-02  2.7776012110857902e-02  2.2610161903622892e-02  2.5539685501847630e-03  7.6288699129252917e-03  2.5507275063640956e-02  3.1953724566434007e-02  3.0136605240538954e-02  -2.4522740464794323e-04  2.3185190934260760e-02  -1.1237737300958429e-01  -3.6649477617506296e-02  -3.0700728176875414e-02  3.9285289277365985e-02  2.0790824438429077e-02  3.0453378430858116e-03  4.6922309892421534e-04  -1.7197184467820617e-01  -1.5353046846646665e-01  -1.2904256199375519e-01  4.0649499802704425e-01  1.2775122099472988e-01  -8.8255152469319614e-02  -1.7503165411741950e-01  -1.7213887880685746e-01  -7.9371909450813030e-02  -3.5075351684179142e-02  -9.8732057303283285e-02  -1.4096148445723478e-01  -1.4724719904458752e-01  2.9749290539835618e-02  3.2516423845210772e-02  1.6352034276363878e-02  2.6998177581928424e-02  1.2124868387426518e-02  1.1637286264258679e-02  -2.0769658912741479e-02  2.9993648095541905e-02  -1.4007960725281968e-01  1.3458275835422596e-02  4.1549635383687097e-02  3.2985635105701044e-02  3.1811965330678253e-02  2.8031627037985233e-02  3.4409839619224072e-02  -7.6861428083804056e-02  -4.3349094073669756e-02  -2.9916285912159640e-01  -3.2038321552766769e-01  -1.2948715904409450e-01  1.1138006057969439e-02  3.8928396533317956e-02  3.5411762081824193e-02  3.4851973720486353e-02  4.0906398934096333e-01  1.7610022553040596e-03  2.2940536181815355e-02  3.0134256324634397e-02  -8.9660563490007769e-02  1.9188284976931237e-02  3.0453214793392580e-01  3.8605964027330221e-02  3.8764714601665397e-02  2.9267041758674842e-02  1.7953051674626269e-02  2.4427052940171445e-02  -1.2491504650257833e-01  2.7771309499556435e-02  -5.1197877634881497e-02  2.0084142057404046e-02  2.7056406461791159e-02  3.2174310957973636e-02  -1.4851612016703719e-01  1.3867786635047568e-02  2.9475900228577597e-02  7.5385268286304918e-01  -1.7423118604739393e-01  1.8539570617941710e-02  3.3974964002517809e-02  -2.4898506865583883e-01  -5.0246782184668382e-02  1.0043599355325981e-02  8.8724132679749365e-03  2.3964218185559275e-02  8.1755172552995559e-01  1.4089557127266738e-02  2.7231179901643893e-02  1.5344550881056943e-02  1.8224652458974124e-02  3.8476530657276903e-01  7.6673396880791132e-03  3.4548818315563196e-01  -2.0452025738810699e-02  7.2472637744606817e-03  -3.3968565179085536e-01  -3.4709102515066897e-01  2.7368015957069863e-02  -3.3735209235811325e-01  -2.6089532942358145e-02  2.5061560484668982e-02  2.8397951765872419e-02  2.4150320178323862e-02  1.6395308622003821e-02  1.0293696563185690e-03  3.2758154741944555e-03  1.1123797006301124e-02  -2.3880711667446940e-02  3.5220897537321244e-02  -1.7900478049247950e-01  3.5788365713268488e-02  3.0711541543363825e-02  1.5879054194781934e-02  -6.3588371881712596e-02  -1.1550916124458768e-01  -8.8503638682490990e-02  -6.8639313749664088e-02  2.3431444332967410e-02  2.1919086508874846e-02  -2.4777723829672221e-01  -1.5492752934155268e-01  -1.7961309527665073e-01  2.1241502935145620e-02  5.9857890456213358e-01  3.2379852994380391e-02  1.1688407105483389e-02  -9.1968287856501255e-02  2.1084934804999823e-02  -2.1985592808668128e-01  1.9787033590687942e-02  -3.3024545407940553e-01  2.7814676450095836e-02  -1.3410387809570623e-01  -1.6346678883453569e-01  -1.9316561354023101e-01  1.2024632315152065e-02  3.2382421197759088e-02  3.5880609832553728e-02  2.5892893391447062e-02  5.5174443725002449e-03  -7.7385109715878392e-02  1.1393103048263684e+00  3.0058115682185301e-02  -4.8008379006822871e-03  -3.0207102377966111e-01  2.9722829309821844e-02  1.8322476146569941e-02  2.9107122502398313e-02  3.2675604900026849e-02  2.8479326884514714e-02  2.4855251158096583e-02  6.8862265651112109e-03  3.4835783412916564e-02  1.0401714494499240e-02  -3.2941189347507310e-02  -4.1389485965936966e-02  4.7236813273947653e-01  4.7062729066353792e-01  3.5110968325339206e-02  -2.5862706067036578e-01  1.9625065368827417e-02  1.6795018925119604e-02  2.6049332151274883e-02  1.0907135549574619e-02  2.7164080039396039e-02  2.2037303721474881e-02  6.1927124244338716e-01  -2.4212784698838911e-02  2.1507578911202217e-02  8.7045111352917481e-02  2.6080806360777331e-01  -1.0552967042055107e-01  1.5243249089988564e-02  3.7151809750318211e-02  -2.3450500531914781e-01  -2.1413288165984143e-01  -3.3237886420593477e-01  2.9854020244992480e-02  2.3741940983246834e-02  -2.5191706382526613e-01  4.5503621320096488e-01  7.6736716498475843e-01  7.6076179556784146e-03  -1.2670146328543561e-01  2.1134933793203612e-02  2.2927399741109897e-02  3.2473107521630594e-02  1.9881449413231684e-02  1.3750034519587862e-09  -1.9272659727268887e-01  2.4854386009457566e-02  2.4353269531648489e-03  -1.9861375833957987e-01  -1.9001467080298037e-01  7.7479344349692053e-03  -1.2259628381800307e-01  4.0608629243775962e-01  3.9095616286614737e-01  1.7502235385981099e-02  3.5509856170302050e-02  3.4930719540170019e-02  3.2579807652205223e-02  2.9620738393526774e-02  2.8374031287322802e-02  2.0479944799106174e-02  -1.6534417065802395e-01  4.0127914658488514e-02  3.8535603715671683e-02  8.5295482101226307e-03  3.6099593906815828e-03  -6.1133963521165222e-02  -2.0741783548603918e-01  1.9281009493881073e-02  -1.1114263199582011e-01  5.9735324456157986e-02  -1.0968570246367943e-09  2.1381880202134732e-02  3.1563547224301443e-02  2.3781171472547477e-02  -1.3146834725091594e-01  2.3685023183650039e-02  1.3331609549067331e-02  3.0342411233091997e-03  7.7222531542834932e-03  -1.3166335221202145e-03  -1.0473737247188282e-02  9.0311811585724513e-03  -4.2307262262798332e-03  2.2824982286354096e-03  -1.6382263259910785e-02  3.2896852669886532e-02  2.2042672076342543e-02  -1.0788032943779014e-02  4.0996782722368880e-01  -5.7545628238867075e-03  2.9626674510235155e-02  -4.1643497833393030e-02  5.7412706956532214e-03  6.0413668812172618e-03  2.8247187128055962e-03  -1.9103683415071843e-01  2.0825230496836631e-02  8.4376955590829573e-03  1.5806419808712568e-02  -2.1277442633345117e-01  2.4546290002135304e-02  2.3821854870417009e-02  2.2305294318944926e-02  -1.7610498382052273e-01  -1.8890073882184741e-01  3.4596199453482482e-02  -2.0138529055872817e-01  -2.3055875852709803e-01  -2.2559570006779989e-01  3.2788769388016580e-02  3.0595799904705012e-02  2.7555789686780782e-02  -4.0667959952390076e-01  7.2874295261880755e-03  -1.1887016097459867e-01  2.6160250068034449e-02  3.3657389947982846e-01  -1.3200830585405570e-02  2.0813132131482379e-02  -9.3631256972809232e-02  1.3750034519587862e-09  1.0941149227010789e+00  8.9477878786637632e-01  -1.8093575782589409e-03  -3.3023524365443833e-02  -1.2716281324224976e-01  1.9330069956614338e-02  2.0322708016235033e-02  -1.1382081963734364e-01  1.8507019902990862e-02  -1.6938729566401092e-01  5.3893587306471213e-01  4.8443379761678290e-01  4.8897252815180131e-01  1.7324091462146779e-02  7.3411277256986733e-03  2.4772181266560965e-02  2.1543059757319901e-02  2.0950584074924734e-02  3.9353043905823240e-02  5.4475442057396484e-01  3.2744814829458999e-02  -3.6101737841977743e-01  3.2717502418837807e-02  2.1516580743586918e-02  2.9913561651231532e-02  1.8614084242640837e-02  1.7758906670931430e-02  -1.7886676513216890e-01  3.1030128492005246e-02  -1.8862580407048338e-01  2.1932864219176056e-02  4.519559084