<?xml version="1.0"?>
<VTKFile type="UnstructuredGrid"  version="0.1"  >
<UnstructuredGrid>
<Piece  NumberOfPoints="2426" NumberOfCells="4534">
<Points>
<DataArray  type="Float64"  NumberOfComponents="3"  format="ascii">0 0.41 0  0 0 0  2.2 0 0  2.2 0.41 0  0.2404508497187474 0.2293892626146237 0  0.25 0.2 0  0.2404508497187474 0.1706107373853764 0  0.2154508497187474 0.1524471741852423 0  0.1845491502812526 0.1524471741852423 0  0.1595491502812526 0.1706107373853764 0  0.15 0.2 0  0.1595491502812526 0.2293892626146237 0  0.1845491502812527 0.2475528258147577 0  0.2154508497187474 0.2475528258147577 0  0.5404508497187474 0.2293892626146237 0  0.55 0.2 0  0.5404508497187474 0.1706107373853764 0  0.5154508497187473 0.1524471741852423 0  0.4845491502812526 0.1524471741852423 0  0.4595491502812526 0.1706107373853764 0  0.45 0.2 0  0.4595491502812526 0.2293892626146237 0  0.4845491502812526 0.2475528258147577 0  0.5154508497187473 0.2475528258147577 0  1.1 0 0  0 0.205 0  1.1 0.41 0  0.55 0 0  0.55 0.41 0  0.275 0 0  0.275 0.41 0  1.65 0.41 0  1.65 0 0  1.375 0 0  1.375 0.41 0  1.925 0 0  1.925 0.41 0  0.8250000000000001 0.41 0  0.8250000000000001 0 0  1.5125 0.205 0  1.7875 0.205 0  0.9625000000000001 0.205 0  1.2375 0.205 0  2.2 0.205 0  0.7560964076246335 0.2151713709677419 0  1.99375 0.2152743902439024 0  2.0625 0 0  0.6875 0 0  2.0625 0.41 0  2.2 0.3075 0  0.6875 0.41 0  1.7875 0.41 0  1.375 0.1486128048780488 0  1.5125 0 0  1.7875 0 0  1.5125 0.41 0  0.9625000000000001 0 0  0.9625000000000001 0.41 0  0.4125 0 0  0.1375 0 0  0.1375 0.41 0  0.4125 0.41 0  1.2375 0 0  1.1 0.1486128048780487 0  1.2375 0.41 0  1.65 0.1486128048780487 0  1.126715909090909 0.2793064024390244 0  1.676715909090909 0.2793064024390244 0  1.348284090909091 0.2793064024390244 0  0.34375 0.3032389320646208 0  1.894702181800738 0.1282910975492754 0  2.092797818199262 0.1282910975492754 0  1.85625 0.3075 0  0.8630851210521902 0.286932093388664 0  0.89375 0.1025 0  0.35 0.1090282786671641 0  0 0.3075 0  0 0.1025 0  0.6526217841291382 0.288229645480046 0  0.7562500000000001 0.09660248895515888 0  0.6568633732316684 0.1557582854763441 0  2.099172119769978 0.25625 0  1.002356446954348 0.1010393851523063 0  1.99375 0.08395950269330846 0  1.459960956013612 0.3075 0  1.569025960719943 0.2986889805672169 0  1.03125 0.3278689922742084 0  0.75625 0.3247156761655783 0  1.959375 0.3126371951219512 0  1.749222215368287 0.1025 0  1.275777784631713 0.1025 0  2.2 0.1025 0  1.225938124459196 0.3075 0  1.550777784631713 0.1025 0  1.44375 0.07430640243902442 0  1.16875 0.07430640243902437 0  0.3528655045338512 0.2063263890916129 0  0.5890337614812103 0.08775733857679162 0  0.8504912436891263 0.190072835691683 0  1.899250267340833 0.2229966846119207 0  0.1020898364287272 0.3140258291809757 0  1.766482954545455 0.2934032012195123 0  1.051658316544432 0.2265720188842194 0  0.2 0.3400647632937836 0  1.421109702350723 0.2261157654379721 0  0.4812500000000001 0.41 0  0.4324401666997539 0.3216425986889796 0  0.098916018031319 0.09171660955420841 0  0.9508742791313441 0.2921736960864468 0  2.13125 0 0  2.118919042110979 0.3422084711244843 0  1.30625 0.41 0  0.20625 0 0  1.597888256393107 0.2173787389261347 0  0.4812500000000001 0 0  0.4324082967851086 0.08384041677422771 0  1.829299675393195 0.07400700849299596 0  0.568219932524165 0.3212274660843853 0  1.71875 0.41 0  0.268005226542646 0.08512186835670006 0  1.16875 0.41 0  2.038220665644273 0.332420740103091 0  0.6678017527842831 0.07701763866051195 0  0.89375 0.41 0  0.5111435174287687 0.07335351331957608 0  0.176193934632343 0.0734896648625108 0  0.07390688010811153 0.1697064032433452 0  0.05452951551825875 0.25625 0  0.61875 0.41 0  1.452769549894695 0.1548122580621249 0  1.369219062229598 0.07430640243902442 0  1.30625 0 0  1.720943423819132 0.1714577452753128 0  1.157188124459196 0.205 0  1.094219062229598 0.07430640243902437 0  1.304056576180868 0.1714577452753128 0  1.67579304192913 0.07430640243902437 0  0.2672907219039591 0.3037570723459566 0  1.209670467133757 0.1362100266964769 0  1.58125 0 0  1.03125 0 0  0.06875000000000001 0.41 0  0 0.35875 0  1.58125 0.41 0  1.631724228912893 0.3381867502687533 0  0.8240147050827157 0.1225233169495944 0  1.825608881788174 0.14499488549201 0  1.85625 0 0  1.44375 0 0  1.44375 0.41 0  1.85625 0.41 0  2.13125 0.41 0  0.7562500000000001 0.41 0  0.7562500000000001 0 0  0.89375 0 0  0.34375 0 0  0.34375 0.41 0  0.20625 0.41 0  0.06875000000000001 0 0  1.16875 0 0  1.03125 0.41 0  0.61875 0 0  1.71875 0 0  1.99375 0 0  1.99375 0.41 0  0.3972301426712326 0.2593842555611471 0  1.340625 0.3489494290853124 0  1.134375 0.3489494290853123 0  1.700180620188976 0.3438659752031281 0  0.5003922072260507 0.341765274319271 0  0.6212513815748759 0.2209216137134851 0  0.6885607720119526 0.215393731583638 0  1.033412357328477 0.1612902025713047 0  2.135782184673599 0.07126652247502523 0  1.668441847249787 0.2129203728327609 0  1.295782514339747 0.2378437748815763 0  1.409375 0.3520314716057996 0  2.129248544730567 0.1906135162504124 0  2.060771381434487 0.1989445750470348 0  2.013252586573865 0.1496169464686054 0  1.942766402200229 0.1734448904596831 0  1.895522487186454 0.06076163953489683 0  2.069553871656643 0.06605731020975725 0  0.9281250000000001 0.3539050257418612 0  1.274680914880868 0.3520219391081363 0  0.3030138498135347 0.2488370856812789 0  0.8223773249563684 0.341761430177996 0  0.9018164060227267 0.2326477848736739 0  0.8143027982392851 0.2440265179987191 0  0.7225087161029304 0.2699907246386231 0  1.614713220494657 0.09473434380863296 0  0.378125 0.3566194660323104 0  0.309375 0.3566194660323104 0  1.72990325744076 0.2380068107952482 0  0.6915936999299305 0.3429472631234433 0  0.6268087624932918 0.3466455500035671 0  1.356580098625191 0.2120393231351682 0  0.3060160055995138 0.1590148921620778 0  0.3954648733249218 0.156380553890791 0  2.034370752044885 0.2668681600792073 0  1.51768709249349 0.3426260931494756 0  1.561883724969884 0.1650446847858835 0  1.197344062229598 0.2523725417393646 0  0.9281250000000001 0.05124999999999999 0  1.804085235518364 0.3468178408964637 0  1.817887819205233 0.2589243285818559 0  0.9107805776841645 0.1653834539923287 0  1.905897727272727 0.3485060975609756 0  0 0.05125 0  0.844212276491354 0.0614201194265309 0  0.378125 0.05244637078450034 0  1.008571329007178 0.2705955969954818 0  0.7724048032149464 0.1559079561351474 0  0.7203054377831548 0.04941826955193545 0  1.192836486056382 0.3562350748565544 0  0.5967108020713719 0.1479294686523888 0  1.28257088594801 0.2944411014911587 0  0.7041890234548132 0.1222025174424443 0  1.474860187679412 0.2504218616229368 0  1.406767003493824 0.2829282258560709 0  0.3201325899091991 0.05890121548989159 0  0.5979220912872258 0.2727591995766724 0  1.845656689180403 0.1998310418452388 0  2.144958525570388 0.2909790873294231 0  2.2 0.15375 0  1.57794966442982 0.3540357145964566 0  0.9483181579620558 0.1214693369582054 0  0.0496154796471391 0.333125 0  1.508991196088596 0.1421783375065625 0  0.09776612425612034 0.2204896805326566 0  1.50436820029908 0.06143401634903343 0  1.223857000523521 0.0823554862453532 0  0.2531953886959507 0.3582003209055908 0  1.153316824384777 0.1289850171317837 0  2.148922302309752 0.1258841779285271 0  1.621993280276081 0.2841214267927899 0  1.550118654119087 0.2461998729100966 0  1.327182649291491 0.1216967252533594 0  1.753125 0.04556020050186112 0  1.271875 0.04556020050186116 0  0.9824282234771738 0.05051969257615314 0  1.039510847866381 0.05683351822678641 0  1.94956388244759 0.1180512551534177 0  1.949997712993411 0.04965831614304109 0  1.771961817615021 0.1530278789497521 0  1.909246823951428 0.2812757146784527 0  1.101974016627944 0.2038045618205013 0  0.7906250000000001 0.0444674049654372 0  1.948575539857022 0.2445328248721197 0  1.697271520964565 0.1233917627620729 0  1.065625 0.3689344961371042 0  1.085849084308977 0.3170853572226867 0  0.9840604787624379 0.3582077516409966 0  1.577403511714593 0.05463601888079143 0  0.05622663515370135 0.05493816910862376 0  0.8762396958822678 0.3392249777398821 0  1.751571320346033 0.3651102912045228 0  1.055327852410105 0.111864799513911 0  0.1583785085108421 0.2994699345738728 0  0.1455283439499995 0.3542795598723423 0  2.2 0.35875 0  0.225705107073232 0.05084786997482401 0  0.1455852234589313 0.1166494778469164 0  1.466879772203159 0.3611261772912453 0  1.990280163552011 0.3564754268533217 0  1.17471064520912 0.2990917256188288 0  0.7221925551074015 0.1739659241003985 0  0 0.25625 0  2.2 0.25625 0  2.2 0.05125 0  0 0.15375 0  1.853978576207987 0.35875 0  0.21965520498276 0.1015543880164422 0  1.515638456102889 0.2882700110184686 0  0.09048297387599738 0.3637717362208066 0  2.150453692751374 0.2387066338105111 0  1.323782677156475 0.04897634338873398 0  1.409375 0.03715320121951221 0  1.406484531114799 0.1087852750766809 0  1.134375 0.03715320121951218 0  1.627401732573545 0.04552157221025036 0  0.446875 0.3713289093361426 0  2.045405893604797 0.1105340662939892 0  1.255408269734577 0.1577307500159216 0  2.028125 0.03707597992059326 0  0.04420832937638274 0.128125 0  0.5817551710628505 0.3702615006034757 0  0.1197849154434487 0.2663398672460083 0  1.248258025468107 0.2565907092181813 0  0.1300647302703173 0.0508462728378621 0  0.7738123537510222 0.2761231499240648 0  1.203125 0.0366132337404304 0  0.5444207041612499 0.111205399508622 0  0.8016457771828226 0.1964238426015905 0  2.072662025974815 0.2975086504196739 0  0.4019040438866802 0.2103993403217561 0  0.4677372330974851 0.04827477407630658 0  0.8677218578847617 0.1432970430140788 0  1.058011122005847 0.2758866204059919 0  0.4429405887974043 0.2746184809910084 0  0.5843750000000001 0.03726989681835222 0  0.6318596133730142 0.1128692182767254 0  0.4862628454464408 0.2957029785303028 0  0.7805186758662764 0.3673578380827891 0  1.887722846421017 0.1760882698830035 0  0.3498893058880703 0.256189258793856 0  1.472640588990488 0.1118278026240017 0  1.865937103925594 0.2604137786483804 0
[...]
<PointData  Scalars="f_43"> 
<DataArray  type="Float64"  Name="f_43"  format="ascii">4.2047569139969643e-01  4.5083713713238377e-01  5.6754485207508615e-10  -4.2718189905321357e-09  -3.6309049444806041e-01  -3.2756356261544906e-01  -3.5118313967388548e-01  -5.1894270736327197e-01  -9.3574726112903939e-01  8.6078532858841061e-01  1.9943303704910709e+00  3.9766376304825080e-01  -1.1603358023858699e+00  -5.0974901804569417e-01  -2.8583634679292841e-01  -2.5801055359844149e-01  -2.8855303438116786e-01  -4.5656056809763457e-01  -1.3973355602971113e-01  -1.1704506279529239e-01  -2.9477228241134440e-01  -1.3673201597659404e-01  -6.4094811735126267e-02  -5.3121021062377516e-01  -9.5049677002613485e-03  7.6252671082819723e-01  -1.7325355435271132e-02  -2.0232240099917465e-01  -2.0139867302647826e-01  -1.9288736037741808e-03  1.8388846578850135e-02  4.1772344598342150e-02  3.3470183337228204e-02  2.7383736871000167e-02  -1.0745832150184244e-02  1.6212767465491447e-02  2.6268926652286969e-02  -7.9245584367302391e-02  -1.0164639721535733e-01  2.7043110707707610e-02  1.9803671114362577e-02  -7.1049103706906265e-03  3.6341753330950363e-03  5.5227341741425794e-10  -5.1023338312197221e-02  1.4888579288700576e-02  1.5746127168223479e-02  -1.5665848356566786e-01  1.0817343611859914e-02  -1.1644768069394530e-09  -1.4661149154184924e-01  1.6952482411832490e-02  2.6856633791032872e-02  2.4386283554952988e-02  2.5966676465399265e-02  2.8373422185085238e-02  -2.1512802884108419e-02  -6.3768754955542156e-02  -1.9380375357944180e-01  3.6745726753153901e-01  3.4533919523320267e-01  -1.8080747654495069e-01  -1.6388466812974765e-02  -4.6653129336530503e-03  2.5873434986263828e-02  2.8681583381846964e-02  1.3365447925422989e-02  2.4754014149576089e-02  -4.4992617288169305e-03  -2.6121249628087201e-01  1.4148000077788573e-02  1.1104989040040246e-02  2.4650676961355467e-02  -3.4645745310480147e-02  -3.1748349619695117e-02  -2.9485884882793095e-01  5.1703736116884513e-01  5.5081283071857845e-01  -1.9041188999818814e-01  -1.1713605313534041e-01  -2.0550167064768993e-01  6.8997137072676048e-03  9.4900062279506033e-03  2.0154960261957400e-02  -2.7960534712902561e-03  4.3808419475389770e-02  -5.0399986185452918e-02  -9.4335902945512265e-02  2.3368953818889999e-02  3.3679829745716011e-02  -2.8321426710837950e-03  2.1753334553084672e-09  3.0527640755732947e-02  2.0749411848901150e-02  2.9523400263263774e-02  -2.8783686117516440e-02  -3.5815024430902437e-01  -2.1997134415565611e-01  -2.9948242773975278e-03  2.2785346347325999e-02  4.6054678899246648e-01  1.4861987200844758e-02  3.6479083731766546e-03  1.4907323823381524e-01  -4.2031706020700466e-03  -2.0351606679222040e-01  -2.1868629376696055e-01  4.8935869000359700e-01  -4.4541828457815603e-02  7.3707069099677395e-03  5.8411036095243436e-03  8.5900366150936970e-03  1.9518490564689361e-01  3.1397025729387733e-02  -2.0753768212244350e-01  -2.1453695356264918e-01  1.7865281187934772e-02  -2.2739844951006483e-01  2.3003305817267269e-02  -1.5147368577171993e-01  1.6586606993797156e-02  1.1682245528744896e-02  -1.6839094675153590e-01  -6.5387990174075233e-02  -2.2280074775666261e-01  2.1179739729835029e-01  8.9500456437511411e-01  7.1756643872090453e-01  -1.7988038061464207e-01  2.9493523047730581e-02  2.9826245426027288e-02  9.9688061065298875e-03  3.0725427343177972e-02  2.5658898936212243e-03  -2.8196631713031470e-03  1.7126575496657886e-02  3.5505597169886251e-02  -1.8934662056781776e-01  -1.5154072262758424e-02  2.5680289856257706e-02  -1.6211099745246104e-04  4.0833114351820465e-01  4.3264071946287536e-01  4.8646747236658530e-02  4.8705535052758687e-02  -5.4767182897965415e-02  1.7952093999231030e-02  1.5788925377445473e-02  2.8073928485913204e-02  -3.3674207626959414e-03  2.4140739301423391e-02  5.5760425118922749e-03  -1.0983067645643159e-01  -1.2996718151115180e-01  -6.3094287882165825e-02  -1.3893743709728737e-01  -1.1090588854598800e-01  1.9518278255554447e-01  4.3649112059217626e-01  -2.4435157658303196e-02  -5.0949283946000283e-02  -1.8141300125768678e-01  3.5902038665304462e-02  1.9910047718893303e-02  1.8842054171817849e-02  -3.4981906929789136e-01  -4.5675903303787997e-03  2.5960214322778598e-03  2.6520932900540868e-02  -2.1657632042179165e-01  -2.5060973615578613e-01  -1.5491836694085948e-01  2.1273409673319088e-02  6.7372492056195386e-03  2.3423825447468113e-02  1.2971856567868117e-02  -1.8111729522311684e-02  6.2752872766949084e-03  9.5076993576919365e-03  1.7478852269814601e-02  1.8435834876384897e-02  1.1945316917164880e-02  1.5333553469190690e-02  -6.1771982138537358e-02  2.2734489639162234e-02  -3.5581517503817139e-01  -6.8966995616908083e-02  -1.5683112775681716e-02  -2.5448588030671671e-03  -9.5781576456447554e-02  2.3379452591200122e-02  -1.7153307928153411e-01  -8.7494824754289227e-02  9.4741861059588380e-03  -1.4168446817129707e-01  -1.8136759090278212e-01  -3.8582797425959535e-04  -3.5221329475528512e-01  -3.6673787454232226e-01  1.0543836841856065e-02  2.9031019676041773e-02  1.3049518048557515e-02  2.9247721889587346e-02  -3.9022398739229594e-02  1.5128910242041689e-02  2.6466670367773389e-02  2.2722677786172464e-02  2.8576114980040965e-02  4.6377567458806179e-01  -8.7938081427765741e-02  -1.8996226258652704e-01  -2.6466776114184038e-02  -8.2225988050897980e-02  -1.4019832891775280e-01  2.7201709826503669e-02  -2.4972950480029735e-01  1.8720398277786269e-02  -1.5429667527818425e-01  1.9262164632624208e-02  -1.0264794447885603e-02  -1.3401194084885210e-01  -2.5749871530805990e-01  2.0242659560838122e-02  4.0472603815691890e-03  -1.0328224218480433e-09  5.1643459109263622e-02  8.2504310784875627e-03  4.5604862403697605e-01  2.3429690824139787e-02  1.1146421256162364e+00  2.3943202709859900e-02  -2.6681753958649378e-02  2.8615837067327687e-02  -1.7989256451502195e-02  5.3476309202208742e-03  3.9399187802742840e-02  4.1725782322112111e-02  2.0074577055444496e-02  3.3447530189521291e-02  -6.0248391484907012e-03  -8.0697596871993904e-03  6.0662762317903705e-03  1.6682091935704298e-02  1.7495055550316892e-02  2.8080885643684588e-02  2.5609115280015072e-02  9.9231448501460214e-03  -1.1446305639462134e-01  2.0850312829460763e-02  3.4376347615336325e-02  -3.8699785552735386e-02  -2.1785329773186701e-02  -6.3334850050330807e-02  2.2715252613139735e-02  4.5694305788723627e-01  -5.7557691479514110e-02  1.5152084042039269e-02  8.7348233805982292e-03  2.2835679737699877e-01  3.1972383975384866e-01  5.5495352973807053e-09  9.6915281141031553e-02  3.3531800532085793e-01  1.6971563963333294e-03  1.9284057419524919e-02  2.3749653926488219e-02  -1.2948323422568603e-01  6.6825391587070215e-01  -1.1644768069394530e-09  1.1111835864958180e-09  6.9444201529857774e-01  2.4055517137871778e-02  -1.4230760374700094e-01  2.9053390110692197e-02  3.9969505531193184e-01  4.4771404778619055e-03  1.7060904907350922e-02  3.0157438886591663e-02  3.0118558111171870e-02  -1.8628352328763191e-02  2.9217678401414895e-02  -1.9680124188255912e-01  1.6599969863661170e-02  3.6548959467565044e-03  1.9532879139012312e-02  6.3765639776429717e-01  -1.9391549203896175e-01  6.6397525250894895e-01  2.4898822862894243e-02  3.7303581182477369e-01  -4.6731421711276047e-02  -2.6918145195478582e-02  -2.7696999078698648e-01  -2.8628084547498048e-02  7.8368364473121108e-03  -3.3827747877048936e-01  -2.0576314285931344e-01  -5.1330090151773351e-03  -1.1714854048625749e-02  -2.1576798018951246e-01  -1.9326655746955337e-01  -2.1015758964150483e-01  -2.2407962319237631e-01  -9.3901375808322751e-02  1.3980201710395709e-02  -3.6626499698931975e-01  2.8132560837794713e-02  2.8179940289226879e-02  2.5999066676528741e-02  1.3755253057249608e-02  -1.3221292052945333e-01  -1.5886993951976028e-02  -1.2800336344832292e-01  -1.7733427162227283e-01  -1.1893981604302961e-01  -2.2458249924968443e-03  -2.2753265171597065e-01  -2.0225778823493909e-01  1.6582911475067092e-02  -2.9644027430722275e-01  -2.4532891260802409e-01  1.7840659199622848e-02  1.0617738638611660e-02  9.4632991921515235e-03  -3.9841234022609459e-02  1.4409501749276877e-02  -3.4861908084570653e-01  -3.6091478504233138e-01  1.8303096455811983e-02  -3.5953470581924590e-01  9.0242981775259812e-01  1.7645020318449601e-02  8.3765737812864249e-01  1.5139676229580266e-02  -5.6572647288402056e-03  -4.5636272976747355e-02  3.5825911055380679e-03  7.9252454007302658e-03  8.9153351419380272e-03  -5.1711908864409226e-02  -2.9491736684091094e-02  4.8318613352212755e-02  -1.5830476240652303e-01  -2.8754164906697882e-01  2.5603654154695427e-02  -7.0175783441777898e-02  1.5833804047824734e-02  -1.1672736162855064e-02  -1.3686970730787831e-02  2.6101346388686143e-02  2.1595118253462980e-02  -2.0530395539984775e-01  -1.9877349914010278e-01  4.1283957809702329e-02  3.6178900840657009e-02  3.7758773105161125e-02  4.1056859221116826e-03  3.6882072973079862e-03  4.1798572478581680e-01  -3.0372524291108211e-01  -4.0164182120759194e-02  3.2883918857739815e-02  2.4278032278339336e-02  1.2769533704486438e-02  -9.7360813301787724e-02  2.3940642051782167e-02  2.5217566796968845e-02  -6.4144732543382724e-02  1.5331811839911832e-02  1.9987890805050181e-02  1.5616526026354174e-02  2.9122387941279498e-01  3.9220656313252375e-02  -2.0743240395488904e-01  -2.0526254257817358e-01  -1.5140549423817583e-03  2.8032800084597992e-01  1.3704164245948463e-02  -5.5991735193892507e-02  2.8612802056386877e-02  -2.5279852500718203e-01  2.9434650847280232e-02  9.6251627090764794e-03  2.6566024864589494e-02  4.1783108817178678e-02  -2.7631855531982014e-01  -1.5948627036803945e-01  1.0411628777701113e-02  -1.5502047229463911e-02  2.6967134938066916e-02  -8.8413760555770687e-03  3.0583144690062257e-02  3.9929725928367042e-03  4.1245289419248032e-01  5.3410423500734241e-03  -1.5582002923166116e-01  -2.1349257160542601e-01  -1.1773928617622058e-01  2.0571180867835780e-02  -3.3975598398915124e-01  2.6765412261437790e-02  -8.3920889220625211e-02  1.4132702363507586e-02  1.4626983769114855e-02  1.3390838258158682e-02  -1.3705411602896508e-02  2.4383838150311060e-02  3.7544689085832098e-02  3.5066989079572383e-02  2.9656589367736713e-02  4.4815771782203601e-01  4.2082609582812852e-01  1.2978652547636731e-02  2.9434931183098378e-02  -6.8630225964615724e-02  -7.6861768424171126e-02  -3.0270760950175560e-02  -3.4080822858143185e-02  5.5288547924166576e-01  -2.3837316555208310e-01  6.8928000241747378e-01  -1.8096436016659534e-01  2.9454586869365616e-02  -1.2014615051581151e-01  -5.9128443854722532e-02  -2.6089764580624014e-01  2.4811913239798151e-02  7.5865029683547058e-01  -1.8965358010160632e-01  1.9427157768174799e-02  1.8021591895738937e-03  2.5056357998214285e-01  3.4100983203483641e-02  5.9334666184874729e-01  2.3182874975533369e-02  -1.4039578935518018e-01  1.7039998820924957e-02  9.6604776732641638e-03  3.2905932825327271e-02  1.2340042907854622e-02  2.7466409726667140e-02  2.6595087139523466e-02  -1.1817674029404133e-03  3.3119322806510317e-02  2.3525651875498679e-02  -2.0013977010643744e-01  1.9129889184146556e-02  -2.2203244532111405e-01  -1.6999622212302723e-01  -2.6678322105002605e-02  -9.7264613525468689e-03  5.2510148997804185e-01  4.9599880854046714e-02  3.6639884639013375e-02  2.2931345460441688e-01  4.3167922954634452e-01  -5.9922334537460188e-02  4.9414171320753247e-01  4.8198590199241338e-02  -8.7025140171756499e-02  1.5132504128913942e-02  -2.0688412919035815e-01  3.5057525081694699e-02  1.9972354240403747e-02  -1.8583805208340601e-01  -6.2861069948543805e-02  7.7588915321383425e-03  9.9889360414777435e-03  1.2137288921032916e-02  5.6783655886923634e-03  -5.7717923936311026e-02  6.4329064449413515e-03  3.5949387091365557e-03  1.1843743107448894e-02  2.1797605118099989e-02  -3.4687252134432184e-01  3.1642333368993629e-02  -1.9942039639757228e-02  3.6063089940666787e-03  8.5335292356951732e-03  1.8304093962026518e-02  6.8614705376006408e-03  9.3837563212239346e-03  1.4827404304965552e-02  2.2344295999784061e-02  -7.7653279085738922e-03  -2.0884910144257210e-01  -2.0373475407762481e-01  9.3437527754883398e-02  -7.0108143292622244e-02  -1.2822116980244216e-01  -2.0568783835602047e-01  -1.8181962394931317e-01  1.3591427334513662e+00  -8.9112078481467215e-04  1.5226505677062452e-01  1.4466858182273206e-02  1.2100183333663363e-03  8.7717297380202272e-03  -2.9245289575287855e-03  -1.3524276141160464e-02  9.9336231366628173e-03  1.3960360736084622e-02  7.9727747650675754e-03  2.4779346587169484e-02  -3.2760777008548980e-01  -2.0404734555751874e-01  1.4262604268708647e-02  -3.4329314029771629e-01  -2.6951023956701431e-01  -1.8684943733814768e-02  -2.9887708368188837e-01  -3.6249810984754194e-01  -1.8690980165196127e-02  3.2140495560040956e-02  1.7403378414363919e-02  1.4008223125576093e-02  2.0511724997424922e-02  1.9483959121154762e-02  -2.2702990227762962e-01  -8.6283950816297070e-03  -4.0243978930775868e-04  1.9660973923818336e-02  -2.6054360268211389e-02  2.0910607801119335e-02  3.4695620741414684e-03  1.1624894378631170e-02  2.9236029624322476e-02  1.1178339447192355e-02  1.7274588633586468e-02  -3.6316307086430272e-02  3.2170412356878078e-02  -1.4288356405976030e-01  -4.1450572011302242e-02  -6.4558515933804683e-02  -1.1127297978491067e-02  -1.8096126981533848e-02  3.0310105717269542e-03  -1.6782221773109177e-03  -1.9576666768151699e-01  -1.7285687817259379e-01  -1.5230632973135100e-01  3.8535717826070254e-01  1.0634825086580985e-01  -9.2978551370680201e-02  -1.9468438805859387e-01  -1.9327457097258866e-01  -1.1646223411499741e-01  -5.7319023637012904e-02  -1.2155198019232760e-01  -1.6435051424546213e-01  -1.6432690099529443e-01  -2.3829705886660019e-02  2.9155660094148224e-02  1.8941598065538787e-02  -3.7398424369210928e-03  1.8910544753342140e-02  2.3321237032266136e-02  -7.1425110933980808e-03  2.2382580199814234e-02  -1.5098983190207585e-01  1.8910431420614340e-02  -2.4008559601544598e-02  3.8949979838589603e-03  5.8439034202870856e-03  3.0319443570889369e-02  -1.7977904513659746e-02  -8.0379124701434004e-02  -5.1526002048678417e-02  -3.2876000905076502e-01  -3.4535215311792078e-01  -1.6904798271825297e-01  1.4938732803197937e-02  -1.7697783933020661e-03  6.6566668964779365e-03  -1.8370837554421045e-02  3.8786503761719754e-01  2.0969393677714838e-02  3.7427023407472060e-02  1.4475134126241320e-02  -1.0298203226146609e-01  1.4337743850719321e-02  2.8332894152571936e-01  -1.2133261596960605e-02  -1.0788248485097376e-02  1.3639927544542730e-02  2.8178450317508614e-02  8.6776915807646113e-03  -1.3794872222658891e-01  1.7272822087572744e-02  -7.3051934545017877e-02  1.9041988868579964e-02  2.2292802725896468e-02  1.0141612919784476e-02  -1.6475442460034770e-01  2.7018506289408297e-02  1.8534325173144319e-02  7.3267422230449564e-01  -1.9493966283448394e-01  -2.5545702256819510e-02  2.6225810555086871e-02  -2.7427802723288164e-01  -8.0971464538443991e-02  1.6184273212030718e-02  1.2559067557844607e-02  1.7480601657370917e-02  7.9634555514340144e-01  3.1036259524516181e-02  8.3200850450417963e-03  1.8535120955902103e-02  1.6082806618319938e-02  3.6363992414771629e-01  7.1064208199332754e-03  3.2422152390567394e-01  -6.3795017517547195e-02  1.1031851494732689e-02  -3.5340525400622985e-01  -3.6568678674231614e-01  1.7031808703508320e-02  -3.6159830110337565e-01  -3.0114954024583043e-02  2.0250101402199554e-02  2.5016970200878442e-02  2.8043766100623504e-02  1.7651346669406005e-02  3.1514033554976588e-03  2.7277237151634129e-03  1.2201491967574762e-03  -1.2265657274323024e-02  1.5836985448857206e-02  -2.0277403200682920e-01  2.0994195146089457e-02  2.9474928603057650e-02  2.7292197250660007e-02  -1.0185888070825456e-01  -1.1216877938268778e-01  -8.3406216909275563e-02  -4.8477622657394581e-02  1.9475307174568246e-02  4.6510248727761584e-02  -2.6200991265530449e-01  -1.7389040966220787e-01  -2.0143182910143870e-01  5.0723202971087525e-02  5.7746783354597619e-01  2.1208342434472147e-02  -1.0127051284495722e-02  -1.1212281697538443e-01  2.3473556386832944e-02  -2.3797631828723453e-01  2.5869282257128166e-02  -3.4779710965941757e-01  -1.0840033943853062e-02  -1.5374998957771752e-01  -1.8259319893083559e-01  -2.1214508068340268e-01  2.6401994359351255e-02  -6.2197473907060217e-03  2.3886870481186952e-02  2.4407112347744515e-02  2.9514291249061467e-02  -1.1670405898574106e-01  1.1180103863813655e+00  1.3516066330070339e-02  -1.7453031376566824e-02  -3.2491612174510337e-01  1.7635924864951375e-02  2.7158450134355413e-02  2.7094540754286064e-02  2.6782072296068587e-02  1.9490487544120541e-02  2.4457389519952889e-02  7.6922462333372807e-03  2.4674630900597756e-02  2.1632219481129897e-02  -3.0978159410037245e-02  -5.8215801327050155e-02  4.5123999073264254e-01  4.4949959121822586e-01  1.7277810466372764e-02  -2.8089915622615041e-01  1.1311691515058502e-02  -3.8417851870837981e-02  -8.5914217082087973e-03  -4.0809328339164785e-02  1.7565892962659802e-02  8.9546556408447581e-03  5.9807311416185571e-01  -6.4640181671848998e-02  4.3824661112084655e-02  6.6067299530677720e-02  2.3973807781445894e-01  -1.2648621298496898e-01  1.8648342760826681e-02  -4.7918640045411555e-03  -2.5024471321865810e-01  -2.2905376916391867e-01  -3.5216625882281177e-01  -1.4725680776789721e-02  2.1842353511624519e-02  -2.6563492286547263e-01  4.3387807592049898e-01  7.4618210417247899e-01  1.1257003937140936e-02  -1.5652220829861260e-01  1.8190935567799927e-02  2.5120750084871950e-02  2.5364669667063286e-02  2.6548473050223925e-02  5.5227341741425794e-10  -2.1301331445979374e-01  3.0839226692631980e-02  3.4917936626005347e-03  -2.2174693477735333e-01  -2.1655097498481043e-01  8.5093317506158960e-03  -1.5162104321241832e-01  3.8494261295255611e-01  3.6983213143859123e-01  2.6706705001266692e-02  -8.4318857402650715e-03  7.8532407112009064e-03  1.1449459313898954e-02  2.6084011186545134e-02  2.8560273178289387e-02  2.6707367232852632e-02  -1.8466778800313377e-01  -1.0638315120949839e-02  -4.0687160756330207e-03  -3.2244370236771187e-02  -3.9575527691709779e-02  -1.0142549447851106e-01  -2.2648295539265945e-01  1.9031914667019121e-02  -1.3163419539480664e-01  3.8765122008189948e-02  2.1753334553084672e-09  2.5293763252715741e-02  1.7772846225977579e-02  1.8353629939695453e-02  -1.6342825850463921e-01  3.7532123331769841e-02  -8.6883839844160964e-03  -7.3000989270242591e-03  2.0765316409507933e-02  1.1618558105432138e-02  -9.0573980810271289e-03  1.6969612430251219e-02  1.0205971504496519e-02  6.6318060461071438e-03  4.0579649940156552e-03  2.8782084031165386e-02  4.2627003701227080e-02  -5.2046913959164616e-02  3.8874109954103786e-01  1.0461366812943578e-03  1.5744723120629214e-02  -7.7705765176230401e-02  4.6843356148122085e-03  5.3325083409524075e-03  2.6086098558458690e-03  -2.1088631009047851e-01  2.6694557111245205e-02  1.9459836630962821e-02  2.2716899932760912e-02  -2.2935879278533339e-01  6.7558571314315979e-03  3.4796254144741065e-02  2.8790971136822389e-02  -1.9570641871895436e-01  -2.0746634327759181e-01  2.0657088548066718e-02  -2.2727678721595643e-01  -2.6293406801028346e-01  -2.5126183705233079e-01  -1.9553841428639848e-02  -2.3823079418446445e-02  1.3281105832128957e-02  -4.2845642325779565e-01  3.2712488708662738e-02  -1.4715911008681751e-01  -3.3300059045084779e-04  3.1546895416806531e-01  -5.9838715950703149e-02  -1.6110787373610460e-02  -1.2940125580062606e-01  5.5227341741425794e-10  1.0729792442677888e+00  8.7359377967983542e-01  -5.9955083476762858e-02  -6.3543662859037661e-02  -1.2999056719881713e-01  4.9916351415448208e-02  5.2566092633995067e-02  -1.2226257166683385e-01  1.3677864798497740e-02  -1.8888452773322220e-01  5.1771960729784683e-01  4.6322068833743363e-01  4.6777288223994612e-01  1.8068971685495552e-02  7.0951063313687496e-03  3.6089839917035793e-02  4.1956367345147252e-02  4.0050968116617777e-02  -6.6027315460923950e-03  5.2382602964964686e-01  -3.1128614923879361e-02  -3.8118126177390749e-01  1.8857512890219520e-02  2.1624684889271103e-02  1.3441065475991623e-02  1.4179999708465304e-02  1.6653464147608588e-02  -2.0306819882221144e-01  