<?xml version="1.0"?>
<VTKFile type="UnstructuredGrid"  version="0.1"  >
<UnstructuredGrid>
<Piece  NumberOfPoints="2426" NumberOfCells="4534">
<Points>
<DataArray  type="Float64"  NumberOfComponents="3"  format="ascii">0 0.41 0  0 0 0  2.2 0 0  2.2 0.41 0  0.2404508497187474 0.2293892626146237 0  0.25 0.2 0  0.2404508497187474 0.1706107373853764 0  0.2154508497187474 0.1524471741852423 0  0.1845491502812526 0.1524471741852423 0  0.1595491502812526 0.1706107373853764 0  0.15 0.2 0  0.1595491502812526 0.2293892626146237 0  0.1845491502812527 0.2475528258147577 0  0.2154508497187474 0.2475528258147577 0  0.5404508497187474 0.2293892626146237 0  0.55 0.2 0  0.5404508497187474 0.1706107373853764 0  0.5154508497187473 0.1524471741852423 0  0.4845491502812526 0.1524471741852423 0  0.4595491502812526 0.1706107373853764 0  0.45 0.2 0  0.4595491502812526 0.2293892626146237 0  0.4845491502812526 0.2475528258147577 0  0.5154508497187473 0.2475528258147577 0  1.1 0 0  0 0.205 0  1.1 0.41 0  0.55 0 0  0.55 0.41 0  0.275 0 0  0.275 0.41 0  1.65 0.41 0  1.65 0 0  1.375 0 0  1.375 0.41 0  1.925 0 0  1.925 0.41 0  0.8250000000000001 0.41 0  0.8250000000000001 0 0  1.5125 0.205 0  1.7875 0.205 0  0.9625000000000001 0.205 0  1.2375 0.205 0  2.2 0.205 0  0.7560964076246335 0.2151713709677419 0  1.99375 0.2152743902439024 0  2.0625 0 0  0.6875 0 0  2.0625 0.41 0  2.2 0.3075 0  0.6875 0.41 0  1.7875 0.41 0  1.375 0.1486128048780488 0  1.5125 0 0  1.7875 0 0  1.5125 0.41 0  0.9625000000000001 0 0  0.9625000000000001 0.41 0  0.4125 0 0  0.1375 0 0  0.1375 0.41 0  0.4125 0.41 0  1.2375 0 0  1.1 0.1486128048780487 0  1.2375 0.41 0  1.65 0.1486128048780487 0  1.126715909090909 0.2793064024390244 0  1.676715909090909 0.2793064024390244 0  1.348284090909091 0.2793064024390244 0  0.34375 0.3032389320646208 0  1.894702181800738 0.1282910975492754 0  2.092797818199262 0.1282910975492754 0  1.85625 0.3075 0  0.8630851210521902 0.286932093388664 0  0.89375 0.1025 0  0.35 0.1090282786671641 0  0 0.3075 0  0 0.1025 0  0.6526217841291382 0.288229645480046 0  0.7562500000000001 0.09660248895515888 0  0.6568633732316684 0.1557582854763441 0  2.099172119769978 0.25625 0  1.002356446954348 0.1010393851523063 0  1.99375 0.08395950269330846 0  1.459960956013612 0.3075 0  1.569025960719943 0.2986889805672169 0  1.03125 0.3278689922742084 0  0.75625 0.3247156761655783 0  1.959375 0.3126371951219512 0  1.749222215368287 0.1025 0  1.275777784631713 0.1025 0  2.2 0.1025 0  1.225938124459196 0.3075 0  1.550777784631713 0.1025 0  1.44375 0.07430640243902442 0  1.16875 0.07430640243902437 0  0.3528655045338512 0.2063263890916129 0  0.5890337614812103 0.08775733857679162 0  0.8504912436891263 0.190072835691683 0  1.899250267340833 0.2229966846119207 0  0.1020898364287272 0.3140258291809757 0  1.766482954545455 0.2934032012195123 0  1.051658316544432 0.2265720188842194 0  0.2 0.3400647632937836 0  1.421109702350723 0.2261157654379721 0  0.4812500000000001 0.41 0  0.4324401666997539 0.3216425986889796 0  0.098916018031319 0.09171660955420841 0  0.9508742791313441 0.2921736960864468 0  2.13125 0 0  2.118919042110979 0.3422084711244843 0  1.30625 0.41 0  0.20625 0 0  1.597888256393107 0.2173787389261347 0  0.4812500000000001 0 0  0.4324082967851086 0.08384041677422771 0  1.829299675393195 0.07400700849299596 0  0.568219932524165 0.3212274660843853 0  1.71875 0.41 0  0.268005226542646 0.08512186835670006 0  1.16875 0.41 0  2.038220665644273 0.332420740103091 0  0.6678017527842831 0.07701763866051195 0  0.89375 0.41 0  0.5111435174287687 0.07335351331957608 0  0.176193934632343 0.0734896648625108 0  0.07390688010811153 0.1697064032433452 0  0.05452951551825875 0.25625 0  0.61875 0.41 0  1.452769549894695 0.1548122580621249 0  1.369219062229598 0.07430640243902442 0  1.30625 0 0  1.720943423819132 0.1714577452753128 0  1.157188124459196 0.205 0  1.094219062229598 0.07430640243902437 0  1.304056576180868 0.1714577452753128 0  1.67579304192913 0.07430640243902437 0  0.2672907219039591 0.3037570723459566 0  1.209670467133757 0.1362100266964769 0  1.58125 0 0  1.03125 0 0  0.06875000000000001 0.41 0  0 0.35875 0  1.58125 0.41 0  1.631724228912893 0.3381867502687533 0  0.8240147050827157 0.1225233169495944 0  1.825608881788174 0.14499488549201 0  1.85625 0 0  1.44375 0 0  1.44375 0.41 0  1.85625 0.41 0  2.13125 0.41 0  0.7562500000000001 0.41 0  0.7562500000000001 0 0  0.89375 0 0  0.34375 0 0  0.34375 0.41 0  0.20625 0.41 0  0.06875000000000001 0 0  1.16875 0 0  1.03125 0.41 0  0.61875 0 0  1.71875 0 0  1.99375 0 0  1.99375 0.41 0  0.3972301426712326 0.2593842555611471 0  1.340625 0.3489494290853124 0  1.134375 0.3489494290853123 0  1.700180620188976 0.3438659752031281 0  0.5003922072260507 0.341765274319271 0  0.6212513815748759 0.2209216137134851 0  0.6885607720119526 0.215393731583638 0  1.033412357328477 0.1612902025713047 0  2.135782184673599 0.07126652247502523 0  1.668441847249787 0.2129203728327609 0  1.295782514339747 0.2378437748815763 0  1.409375 0.3520314716057996 0  2.129248544730567 0.1906135162504124 0  2.060771381434487 0.1989445750470348 0  2.013252586573865 0.1496169464686054 0  1.942766402200229 0.1734448904596831 0  1.895522487186454 0.06076163953489683 0  2.069553871656643 0.06605731020975725 0  0.9281250000000001 0.3539050257418612 0  1.274680914880868 0.3520219391081363 0  0.3030138498135347 0.2488370856812789 0  0.8223773249563684 0.341761430177996 0  0.9018164060227267 0.2326477848736739 0  0.8143027982392851 0.2440265179987191 0  0.7225087161029304 0.2699907246386231 0  1.614713220494657 0.09473434380863296 0  0.378125 0.3566194660323104 0  0.309375 0.3566194660323104 0  1.72990325744076 0.2380068107952482 0  0.6915936999299305 0.3429472631234433 0  0.6268087624932918 0.3466455500035671 0  1.356580098625191 0.2120393231351682 0  0.3060160055995138 0.1590148921620778 0  0.3954648733249218 0.156380553890791 0  2.034370752044885 0.2668681600792073 0  1.51768709249349 0.3426260931494756 0  1.561883724969884 0.1650446847858835 0  1.197344062229598 0.2523725417393646 0  0.9281250000000001 0.05124999999999999 0  1.804085235518364 0.3468178408964637 0  1.817887819205233 0.2589243285818559 0  0.9107805776841645 0.1653834539923287 0  1.905897727272727 0.3485060975609756 0  0 0.05125 0  0.844212276491354 0.0614201194265309 0  0.378125 0.05244637078450034 0  1.008571329007178 0.2705955969954818 0  0.7724048032149464 0.1559079561351474 0  0.7203054377831548 0.04941826955193545 0  1.192836486056382 0.3562350748565544 0  0.5967108020713719 0.1479294686523888 0  1.28257088594801 0.2944411014911587 0  0.7041890234548132 0.1222025174424443 0  1.474860187679412 0.2504218616229368 0  1.406767003493824 0.2829282258560709 0  0.3201325899091991 0.05890121548989159 0  0.5979220912872258 0.2727591995766724 0  1.845656689180403 0.1998310418452388 0  2.144958525570388 0.2909790873294231 0  2.2 0.15375 0  1.57794966442982 0.3540357145964566 0  0.9483181579620558 0.1214693369582054 0  0.0496154796471391 0.333125 0  1.508991196088596 0.1421783375065625 0  0.09776612425612034 0.2204896805326566 0  1.50436820029908 0.06143401634903343 0  1.223857000523521 0.0823554862453532 0  0.2531953886959507 0.3582003209055908 0  1.153316824384777 0.1289850171317837 0  2.148922302309752 0.1258841779285271 0  1.621993280276081 0.2841214267927899 0  1.550118654119087 0.2461998729100966 0  1.327182649291491 0.1216967252533594 0  1.753125 0.04556020050186112 0  1.271875 0.04556020050186116 0  0.9824282234771738 0.05051969257615314 0  1.039510847866381 0.05683351822678641 0  1.94956388244759 0.1180512551534177 0  1.949997712993411 0.04965831614304109 0  1.771961817615021 0.1530278789497521 0  1.909246823951428 0.2812757146784527 0  1.101974016627944 0.2038045618205013 0  0.7906250000000001 0.0444674049654372 0  1.948575539857022 0.2445328248721197 0  1.697271520964565 0.1233917627620729 0  1.065625 0.3689344961371042 0  1.085849084308977 0.3170853572226867 0  0.9840604787624379 0.3582077516409966 0  1.577403511714593 0.05463601888079143 0  0.05622663515370135 0.05493816910862376 0  0.8762396958822678 0.3392249777398821 0  1.751571320346033 0.3651102912045228 0  1.055327852410105 0.111864799513911 0  0.1583785085108421 0.2994699345738728 0  0.1455283439499995 0.3542795598723423 0  2.2 0.35875 0  0.225705107073232 0.05084786997482401 0  0.1455852234589313 0.1166494778469164 0  1.466879772203159 0.3611261772912453 0  1.990280163552011 0.3564754268533217 0  1.17471064520912 0.2990917256188288 0  0.7221925551074015 0.1739659241003985 0  0 0.25625 0  2.2 0.25625 0  2.2 0.05125 0  0 0.15375 0  1.853978576207987 0.35875 0  0.21965520498276 0.1015543880164422 0  1.515638456102889 0.2882700110184686 0  0.09048297387599738 0.3637717362208066 0  2.150453692751374 0.2387066338105111 0  1.323782677156475 0.04897634338873398 0  1.409375 0.03715320121951221 0  1.406484531114799 0.1087852750766809 0  1.134375 0.03715320121951218 0  1.627401732573545 0.04552157221025036 0  0.446875 0.3713289093361426 0  2.045405893604797 0.1105340662939892 0  1.255408269734577 0.1577307500159216 0  2.028125 0.03707597992059326 0  0.04420832937638274 0.128125 0  0.5817551710628505 0.3702615006034757 0  0.1197849154434487 0.2663398672460083 0  1.248258025468107 0.2565907092181813 0  0.1300647302703173 0.0508462728378621 0  0.7738123537510222 0.2761231499240648 0  1.203125 0.0366132337404304 0  0.5444207041612499 0.111205399508622 0  0.8016457771828226 0.1964238426015905 0  2.072662025974815 0.2975086504196739 0  0.4019040438866802 0.2103993403217561 0  0.4677372330974851 0.04827477407630658 0  0.8677218578847617 0.1432970430140788 0  1.058011122005847 0.2758866204059919 0  0.4429405887974043 0.2746184809910084 0  0.5843750000000001 0.03726989681835222 0  0.6318596133730142 0.1128692182767254 0  0.4862628454464408 0.2957029785303028 0  0.7805186758662764 0.3673578380827891 0  1.887722846421017 0.1760882698830035 0  0.3498893058880703 0.256189258793856 0  1.472640588990488 0.1118278026240017 0  1.865937103925594 0.2604137786483804 0
[...]
<PointData  Scalars="f_43"> 
<DataArray  type="Float64"  Name="f_43"  format="ascii">4.3742211915727164e-01  4.6762400480764527e-01  4.8480829220818443e-10  9.3793089794309564e-10  -3.4669744901010363e-01  -3.1092924616415324e-01  -3.3416020364054516e-01  -5.0167860393044550e-01  -9.1912365402870599e-01  8.7694683520156946e-01  2.0111468607995455e+00  4.1515131742220446e-01  -1.1431530830844732e+00  -4.9367281706687810e-01  -2.6450617409225596e-01  -2.4056381711453714e-01  -2.7613516715302505e-01  -4.4321626330718733e-01  -1.1231467184982345e-01  -9.1526393706526571e-02  -2.7843346408567377e-01  -1.2905534251186504e-01  -6.1800863570712503e-02  -5.0842072621676870e-01  1.1953447745323354e-02  7.7938453624477544e-01  -9.6837681439533117e-03  -1.8540026597865597e-01  -1.8535881305985724e-01  1.4575527933376770e-02  3.5834947839707962e-02  3.2720009816136444e-02  2.0715858450828208e-02  2.8992365177934191e-02  2.1455177709305582e-02  1.6447902807401882e-02  1.2296330062076921e-02  -7.0811182577575127e-02  -7.7160560825887556e-02  2.6742251435413925e-02  1.3024706597371469e-02  2.6297945971877606e-02  2.4873985714539273e-02  2.5420848007793409e-09  -4.8183486820097252e-02  1.0291956876195154e-02  1.6948442169976031e-03  -1.3183128011138209e-01  9.6108339014057739e-03  1.1381354970522279e-09  -1.3866401828808742e-01  1.5960029959830022e-02  3.0738810285547584e-02  2.9543544705286751e-02  2.2812607113479794e-02  2.3960485481585993e-02  -2.9168362993783920e-02  -2.6798332948834276e-02  -1.7842171273840324e-01  3.8433243076139967e-01  3.6222628044355276e-01  -1.6218556267817655e-01  1.1660048220502470e-02  2.3593532401154683e-02  2.3281924332214089e-02  1.9335283087106331e-02  1.1367730227874731e-02  3.0928581978968372e-02  2.2920945121638513e-02  -2.4009236233829526e-01  1.9339941705956969e-02  -2.1700263822522112e-04  7.6627820700944736e-03  -8.2561855012617709e-03  -2.9242159696847580e-02  -2.8220220231883969e-01  5.3398769972738447e-01  5.6758648469337836e-01  -1.8304076485040077e-01  -8.5667558621397327e-02  -1.7636685857649037e-01  8.2074873491134719e-03  2.3785917249895456e-03  9.3859996463992023e-03  1.6583424822156748e-02  3.1006164244158953e-02  -1.6022319180241645e-02  -9.2464325012909021e-02  1.3693167683806030e-02  2.3045403016782880e-02  1.3883206138468138e-02  -2.9779508065466708e-09  2.5133951427134187e-02  2.5530892613407630e-02  3.5209350690936329e-02  1.4096853579347576e-02  -3.3957758127336773e-01  -2.0191871893125604e-01  1.1244060792446673e-02  1.0031374224442466e-02  4.7747513640149841e-01  1.7964769222033959e-02  1.2455325808680938e-02  1.6597206079615479e-01  1.7960761373507297e-02  -1.8548427403534906e-01  -2.0111515309725653e-01  5.0615073853942938e-01  -4.7773296642269958e-03  1.8726094936498129e-04  7.3016137731214594e-03  2.7016440174564858e-02  2.1202061695117097e-01  2.9273324909312545e-02  -1.9197602640759076e-01  -1.9752711845137744e-01  2.1614272598875082e-02  -2.1127065503184417e-01  2.5725491376282415e-02  -1.3494434499017111e-01  7.8888543701156194e-03  1.0781724648578787e-02  -1.4303239215672373e-01  -4.2482802014001543e-02  -2.0603563158572127e-01  2.2868586754854259e-01  9.1180246246208585e-01  7.3449284654643476e-01  -1.6732850223814646e-01  3.2637750040890229e-02  2.8712200307604532e-02  1.8497160465141570e-02  2.1652741612240258e-02  2.4428692546911136e-02  1.6080135668357413e-02  2.2651719921284143e-02  1.9778580645737683e-02  -1.7205138649173457e-01  1.4073128496640478e-02  2.2965829528889856e-02  -2.3053445436828478e-03  4.2526056982853344e-01  4.4959184454624040e-01  3.1721038287538542e-02  3.5087908437341706e-02  -3.8321013249587053e-02  2.0693493383426301e-02  2.0666132540614762e-02  3.3429267925490579e-02  1.8271509402306700e-02  1.1115724923507892e-02  5.8702201211461033e-03  -1.0527358631735055e-01  -1.0105653071659014e-01  -5.5555294855449133e-02  -1.2307345323359309e-01  -9.2731910670347903e-02  2.1217211759852314e-01  4.5330067340909685e-01  1.2871634624637798e-02  -1.9967319754468020e-02  -1.6128079307304116e-01  2.2389135447151497e-02  8.6788993471008172e-03  1.2499927303114056e-02  -3.2337267415711463e-01  2.5618304543401488e-02  -2.3209638017726800e-03  2.9469983151893725e-02  -1.9945535475236148e-01  -2.3188057736121337e-01  -1.4696390913446691e-01  3.1055358089675755e-02  -2.8543163513757816e-04  2.5445050356689237e-02  2.7952143754778332e-02  1.7282242153275642e-02  1.3485337721536915e-03  5.2727557323685198e-04  4.6155659186101804e-03  1.3768503530835313e-02  1.9151650671719304e-02  -2.4390490775363577e-04  -2.8567152349933012e-02  2.9057839386007159e-02  -3.3775974006615889e-01  -6.2154606663145769e-02  2.9520309156348866e-02  7.7890728751914698e-03  -1.0316478138828679e-01  1.9310603354186648e-02  -1.5275471155182049e-01  -6.9521555745071184e-02  2.2341871587631481e-02  -1.3526227077225825e-01  -1.6924590747805252e-01  2.3500007751937405e-02  -3.3669387308428078e-01  -3.5631793504573267e-01  1.1600814117607751e-02  2.3173763053090018e-02  2.3157971748837151e-02  2.9815386397210389e-02  -4.1981568812787827e-02  1.2542354733633366e-02  8.1736653906416441e-03  1.9122546495045720e-02  1.0898830123719529e-02  4.8055575317872429e-01  -6.6041212396174206e-02  -1.7454949650257806e-01  1.0798574256187321e-03  -4.7622232833010897e-02  -1.1214382070889972e-01  1.4638065074780318e-02  -2.3577764345384061e-01  2.9141716808439504e-02  -1.1744073893483413e-01  2.2188096349342847e-02  1.8264553313090112e-02  -1.1819228059551137e-01  -2.3921487310492370e-01  8.1809673466832818e-03  7.2234648211938115e-03  -2.8426543650968726e-09  3.2114772946383645e-02  1.5416262076461352e-03  4.7300039264283161e-01  2.9157636672348362e-02  1.1315439703148886e+00  3.1011670073679210e-02  1.0203396301281375e-02  4.5834261623028102e-02  1.7079814981906350e-02  1.3700463116164091e-03  3.3811579939401384e-02  3.1306419613483162e-02  2.3454176031693981e-02  2.3145756096594874e-02  1.2316955330153702e-02  -1.9687584232892893e-02  2.8906733663944021e-03  1.5827415589474404e-02  1.4661504136127840e-02  2.2201765023870727e-02  1.0837113713809701e-02  2.1655866446350300e-02  -8.4764918808074186e-02  1.3906050696244208e-02  2.1238314377538443e-02  -1.6715420515083210e-02  -9.1482456121066494e-03  -2.1995454083938753e-02  2.2525876837887072e-02  4.7372799712535973e-01  -3.8558394303869120e-02  2.0895052228421935e-02  1.6922331739064520e-02  2.4522843636599770e-01  3.3660783674401634e-01  -3.9701686929676886e-09  1.1374512982773219e-01  3.5209776104601975e-01  1.7549073210459919e-02  1.3107235851083405e-02  1.5634495583610814e-02  -8.9496304376811220e-02  6.8517371852704545e-01  1.1381354970522279e-09  5.7370304197832123e-10  7.1123921637567333e-01  9.6884764851177772e-03  -1.2535939291323547e-01  2.4670689235891659e-02  4.1661931405632402e-01  4.5062757130290227e-03  2.0105886167098158e-02  3.3007402527519047e-02  3.2579664332860137e-02  1.4569340200597001e-02  1.9832010040335257e-02  -1.7840268748504046e-01  1.8246818562442989e-03  1.6925089348091844e-02  4.2336436523946015e-03  6.5443060282831078e-01  -1.7903081427480794e-01  6.8093117513650137e-01  3.0315388598780375e-02  3.8989085318321748e-01  -4.7462312822174807e-02  1.1199359985258455e-02  -2.6128717108043015e-01  -8.3516784147619743e-03  9.3895911373553832e-03  -3.1810762420407274e-01  -1.8988138511072827e-01  -5.5192443629085066e-03  1.6609460081952842e-03  -2.0297150214905268e-01  -1.7531528388475204e-01  -1.8663925281404850e-01  -2.1137574238992701e-01  -9.0238066379494095e-02  1.3682477299570535e-02  -3.4159681816826853e-01  3.2934019106044286e-02  8.6829895900348581e-03  2.5518701404028815e-02  2.3925395710608206e-02  -1.1549260262750372e-01  2.0780846033161885e-02  -1.2219458637230608e-01  -1.5662825243713671e-01  -1.1431189977585107e-01  2.2259333081644041e-02  -2.0798234940938767e-01  -1.8161384560202309e-01  2.5229195512217122e-02  -2.7724372202351244e-01  -2.2485405906358322e-01  1.2822759703517711e-02  -3.6483077073162990e-04  2.7150306615581689e-02  -2.8226074358100713e-02  1.1242516226464040e-02  -3.3128298926436017e-01  -3.4350495918969565e-01  1.9808055753995499e-02  -3.4755506199858899e-01  9.1915170859522144e-01  1.0852794741533356e-02  8.5452104886401548e-01  1.3538041489277163e-02  2.6633318358727415e-02  -1.3281068103249770e-02  5.1675859467139587e-03  7.8744685086579360e-03  8.7912443473620230e-03  -1.1815885897879906e-02  1.0693264766799063e-02  3.3356040862071522e-02  -1.4850333688603626e-01  -2.7435748077111766e-01  2.2458375015845786e-02  -5.5449925740591835e-02  1.3040295465237215e-02  1.8103848184711630e-02  1.8510852629294153e-02  3.2359226985992057e-02  2.0548517568564535e-02  -1.8856908961167118e-01  -1.8329317859770838e-01  2.8145897985069869e-02  2.1362152559558509e-02  2.1856586918183950e-02  7.4890149074375860e-05  4.0174430084389395e-03  4.3492908892987669e-01  -2.8896179293435714e-01  -2.3694383733394022e-02  3.2846277949068761e-02  2.2699680543534623e-02  2.0222656058338360e-02  -6.9669746738695915e-02  2.6046111067238836e-02  1.2908106551253840e-02  -5.4618740878604695e-02  1.4502417835797041e-02  1.2702505251762584e-02  2.3945932018954483e-02  3.0810728339494697e-01  3.2609007962991605e-02  -1.9137368363676219e-01  -1.8881517341030760e-01  9.9048831180616383e-03  2.9723064072891253e-01  6.4566020995586698e-04  -2.0542099150738558e-02  2.7846619374194501e-02  -2.3649188166333943e-01  2.3743261900602247e-02  6.0824745502817770e-04  3.3602268537099828e-02  3.3468603585988667e-02  -2.5371554000217850e-01  -1.6126751012627777e-01  2.7918108871241930e-02  1.7937338252127982e-02  2.5664490314342515e-02  2.3149768318847502e-02  2.7017584840041534e-02  2.1963281823289891e-03  4.2929355300117283e-01  2.7913643551823689e-02  -1.3131058165515494e-01  -1.9938383610530966e-01  -1.1633943112134346e-01  9.3905402907542932e-03  -3.2392553927454076e-01  1.1370733998983919e-02  -6.6738548899451716e-02  2.0654225262028064e-02  1.8971564413312172e-02  1.7652643088244917e-02  -2.3297701362260836e-02  3.0380520712658433e-02  2.1744213324418227e-02  2.0317849111151122e-02  1.9042613872480407e-02  4.6494745751383382e-01  4.3777437940476754e-01  1.0770376248491441e-02  3.2725457787219824e-02  -5.6924640627530727e-02  -6.0647650044579497e-02  -1.5196649567937724e-02  9.2850869697823982e-03  5.6983252672408180e-01  -2.2074330403659395e-01  7.0604904631185794e-01  -1.6231435324011781e-01  2.3269693659760400e-02  -8.1933223436074815e-02  -1.8567961851479846e-02  -2.4404979757938414e-01  3.0107276040503336e-02  7.7545409994571701e-01  -1.7284897471402125e-01  3.1294480875402688e-03  1.8812761282052878e-02  2.6746605808565826e-01  2.7083744954244541e-02  6.1028786956528613e-01  2.7886048954778933e-02  -1.0960240265076759e-01  1.9436067708480706e-02  2.4083099230111055e-02  2.2687656006687065e-02  2.0112086915281813e-02  2.8680837422614392e-02  2.6886292294519054e-02  1.9212507035639249e-02  2.0808696132384980e-02  2.7294855434440476e-02  -1.8029213082956988e-01  1.0962380691856505e-02  -2.1118324885278578e-01  -1.4777410408079750e-01  1.3455069998393682e-02  1.4011365974363499e-02  5.4187491783124075e-01  3.4357648547934591e-02  3.3422406130698329e-02  2.4619209147241089e-01  4.4849091359333759e-01  -2.3079356801162059e-02  5.1091546746986705e-01  3.3884530517037846e-02  -5.9114940368165489e-02  2.1180868551415887e-02  -1.9108101453654550e-01  2.5548423222442992e-02  2.1978551946997042e-02  -1.5444529242830948e-01  -3.9931501572975737e-02  7.4454905876389452e-03  9.2332196639871526e-03  1.7670509144741938e-02  8.3327824784135088e-03  -4.3876904223880499e-02  3.2793997489236771e-03  1.6313426740844174e-03  1.7294364088116899e-02  2.6319573088715083e-02  -3.3005593793648974e-01  3.3730667577662993e-02  -1.1340924390169656e-02  6.5609705385927697e-04  -4.2543830657870170e-04  1.1983718339469113e-02  7.2398828932371279e-03  2.8533422344007454e-02  2.0293861624811841e-02  1.8206833003506430e-02  9.2264256216525939e-03  -1.9166317321363316e-01  -1.8571369286288256e-01  1.1015764005402771e-01  -6.5816102067916382e-02  -9.8621279267074605e-02  -1.8845478670597926e-01  -1.6320099571044708e-01  1.3759421241921239e+00  -8.3991362029339784e-03  1.6927203554392059e-01  5.1532482251868588e-03  -1.4172900436855906e-03  2.7815179657084438e-02  2.4638255566167808e-02  2.1311015159563015e-02  3.6540711235826650e-03  2.8180530399361664e-02  1.4606717843838536e-03  1.6643154341474828e-02  -3.1320709508023115e-01  -1.8869183637139622e-01  1.6696893751891158e-02  -3.2659707243167374e-01  -2.5121800909706410e-01  1.0759004979793308e-02  -2.8002203066798442e-01  -3.3799422145902469e-01  1.6799099320158634e-02  2.9915105099075232e-02  7.1509968990040177e-03  1.6041091410356593e-03  1.3732711322958342e-02  2.6621469733000259e-02  -2.1042464553750514e-01  -6.5138382463658601e-03  4.4443875155950087e-03  2.2785545341654626e-02  1.3134692169290694e-02  2.3857451823215768e-02  2.6421034013320201e-04  4.5383091675205292e-04  3.2457467663717876e-02  2.0076655388941152e-02  2.0630194474069580e-02  -1.5931950844538845e-02  2.2975409219827863e-02  -1.1556144394542271e-01  -4.2890489230587879e-02  -3.3062042478084287e-02  1.8845530764409105e-02  1.3742747950145117e-02  3.2831801047465766e-03  6.9990215343787281e-03  -1.7727827779433214e-01  -1.5729491454842606e-01  -1.3381941727987745e-01  4.0226207195100683e-01  1.2350776060981282e-01  -8.7747715565904064e-02  -1.7651890702351311e-01  -1.7872585719057274e-01  -8.8347213008127895e-02  -3.9491520749002834e-02  -1.0327517565086530e-01  -1.4542065710728211e-01  -1.5399765031831639e-01  1.1622581108704368e-02  2.1171659137629861e-02  1.2820161574608838e-02  1.3989415961739353e-02  4.6439416274507810e-03  1.2875203554851309e-02  -1.4858779098382773e-02  2.6199625646536537e-02  -1.4657967339125647e-01  6.9785153926672228e-03  2.4291917515230632e-02  2.8249375423307650e-02  2.6959703815198202e-02  3.3367085173790965e-02  1.8121034846246522e-02  -7.4205006947517499e-02  -3.7636380760590123e-02  -3.0370309881683422e-01  -3.2427473322954276e-01  -1.2841562728019443e-01  1.9035131674166882e-02  2.3239977401056326e-02  2.5977568250737430e-02  1.0718860432127065e-02  4.0469408031258136e-01  8.8566100427551319e-03  2.6510131699178357e-02  1.9497720487715715e-02  -9.3580496370639379e-02  1.7959950277165865e-02  3.0031535156704336e-01  1.5603774971164865e-02  1.7675893799719254e-02  2.7717423093470524e-02  8.8678465779508907e-03  2.5524760706487161e-02  -1.3090591726812004e-01  2.2890456623038236e-02  -5.5444575842826083e-02  2.1264760682222751e-02  3.1246131797695847e-02  2.5091506604851613e-02  -1.5581774634057771e-01  1.1652531579733937e-02  2.1246676873081530e-02  7.4956559750828844e-01  -1.7405098181807913e-01  1.4954078848491389e-02  2.1531167882467603e-02  -2.5433619268791974e-01  -6.4194485748827593e-02  1.2251631477899945e-03  -1.2034113590984651e-03  2.7975605769905456e-02  8.1328078496310752e-01  2.7304088596979914e-02  2.4651467103277005e-02  1.1631171736835507e-02  1.7108578445913659e-02  3.8053747468892996e-01  8.4629029173922243e-03  3.4110327871679347e-01  -2.6729197204672542e-02  1.1061857725447094e-02  -3.4400460416982581e-01  -3.5136487148454365e-01  1.3736713124630411e-02  -3.4131548310352011e-01  -3.2979746452294137e-02  9.0280013062475819e-03  2.9868430555192692e-02  5.7223003737767626e-03  1.4237255147573777e-02  -1.3312772073374303e-03  5.0822725527265760e-03  1.6586091477623115e-02  -1.1794035757581336e-02  2.2619151769117302e-02  -1.8403142923218624e-01  2.1925083462676877e-02  1.8771892198883391e-02  1.1526912441643939e-02  -7.5902421997799147e-02  -1.1985706093124858e-01  -8.5082780090372748e-02  -5.8566782522426232e-02  3.0458059938135492e-02  3.0005895865063057e-02  -2.4956596623340130e-01  -1.6183804526665119e-01  -1.8690495796781403e-01  3.2870855145285073e-02  5.9423086922301471e-01  2.7058037252370163e-02  7.3789503302531360e-03  -9.6067824776869926e-02  2.3945055692370307e-02  -2.2375089031822729e-01  1.0649707805935354e-02  -3.3503793634907808e-01  1.9479104554162133e-02  -1.3800217422866287e-01  -1.6709632618083384e-01  -1.9666512307516312e-01  1.2973823777483165e-02  1.6256256974528285e-02  2.4336489983765860e-02  6.9534462360857320e-03  1.8166772900976971e-02  -8.5911819200069420e-02  1.1350340813871955e+00  1.9567098109755807e-02  4.9326029891048340e-03  -3.0897287176913002e-01  3.0228922498785834e-02  2.7584821911043351e-02  1.9737418435945408e-02  3.4008921392626255e-02  1.2546959940669180e-02  8.6991322090555264e-03  5.0150951341187521e-04  3.1061769510280113e-02  1.2969151900456263e-02  -3.6429867090684444e-02  -5.2592223137760047e-02  4.6802528697455781e-01  4.6628460413508305e-01  2.5677972670730544e-02  -2.6262999638836276e-01  1.9326962422127628e-02  -1.5189006321193264e-03  6.9714877233083518e-03  -8.0450465434807970e-03  3.0084745330253904e-02  1.1541534336966329e-02  6.1501366242248456e-01  -3.5767506509776809e-02  2.8259122157402675e-02  8.2870998192285453e-02  2.5660245277216376e-01  -1.0968253955370660e-01  1.1891438930464579e-02  2.4557845922800626e-02  -2.3443941956112091e-01  -2.0758490005525762e-01  -3.3694881388775666e-01  1.0379210644398139e-02  1.1338662141431184e-02  -2.5343645193909525e-01  4.5068500017111457e-01  7.6308213226404431e-01  -1.0354517672095278e-03  -1.2703864585589841e-01  2.1785112965789766e-02  3.1848936012330478e-02  1.9449995106881030e-02  8.7159416867912780e-03  2.5420848007793409e-09  -1.9863569897017871e-01  3.2871548990843068e-02  2.0343740585618888e-04  -2.0501273307987669e-01  -2.0308416705866578e-01  1.0356851686560064e-02  -1.2435045322298302e-01  4.0185100095439069e-01  3.8672834683500701e-01  1.0845041105459415e-02  1.9914312342762121e-02  1.9179461802591814e-02  2.0149781914485597e-02  2.4313225107557714e-02  3.3965235404202203e-02  8.4879967227183585e-03  -1.6937743473502606e-01  1.9667228499822765e-02  1.7573834481339808e-02  -9.3309104755545415e-03  -1.5956495863688015e-02  -7.3834864795087676e-02  -2.1174134549640183e-01  8.3613507349240869e-03  -1.1547528292473445e-01  5.5407721840836900e-02  -2.9779508065466708e-09  2.8512913122978191e-02  2.8433485806878371e-02  2.7633712738555187e-02  -1.3316199368580689e-01  2.2742827260919814e-02  1.4495705674644425e-02  -5.6986645198663852e-03  1.3555163637653368e-02  5.9791661151275387e-03  -1.2965419067363360e-02  1.2087962888364150e-02  6.7270855822868540e-03  1.2157520005047528e-02  -6.7531601619181033e-03  3.1548619259730369e-02  3.4712502744252721e-02  -1.5513351282205125e-02  4.0559657794586396e-01  2.8760255484025282e-03  1.8171530017072713e-02  -5.6237625599920377e-02  7.1727409306741778e-03  7.5912192163531686e-03  5.1011688412455963e-03  -1.9354597713335153e-01  7.8650979124064921e-03  1.3748219398932872e-02  2.9409110109473443e-02  -2.1072715606840742e-01  1.6489543159740040e-02  2.2691673547634898e-02  2.2947983160120908e-02  -1.7690270768827299e-01  -1.9011921820898806e-01  2.1171431110564309e-02  -2.1412605737591617e-01  -2.4280969510785336e-01  -2.3393002665115892e-01  1.5214299075460862e-02  1.5855633991928141e-02  2.5177555670651053e-02  -4.1125588711361460e-01  2.1798544042318332e-02  -1.2094680781486607e-01  1.3132396133183599e-02  3.3235815688137077e-01  -3.6486804831748987e-02  1.6353229034454492e-02  -9.9071893261525920e-02  2.5420848007793409e-09  1.0898138573294087e+00  8.9049423072279876e-01  -1.9645669766616160e-02  -3.3550560851516018e-02  -1.3105498797620058e-01  3.2062685466759291e-02  3.4333759275742219e-02  -1.1824858983967700e-01  1.8304740698209306e-02  -1.7774868478483249e-01  5.3467142091907016e-01  4.8017390368939755e-01  4.8471700337027285e-01  1.5980806715020609e-02  4.2443863360811050e-03  2.8394886465407183e-02  3.1612139480130655e-02  3.1856783411666964e-02  2.4955053192191837e-02  5.4040592666061160e-01  1.1539337609293987e-02  -3.6501817111518375e-01  1.8724663672867795e-02  1.0416814917816130e-02  1.6435765843000827e-02  1.7321990888967985e-02  1.5592092535838301e-02  -1.8350789984879493e-01  2.5010550737850565e-02  -1.9525042185855307e-01  2.2980485124375727