<?xml version="1.0"?>
<VTKFile type="UnstructuredGrid"  version="0.1"  >
<UnstructuredGrid>
<Piece  NumberOfPoints="2426" NumberOfCells="4534">
<Points>
<DataArray  type="Float64"  NumberOfComponents="3"  format="ascii">0 0.41 0  0 0 0  2.2 0 0  2.2 0.41 0  0.2404508497187474 0.2293892626146237 0  0.25 0.2 0  0.2404508497187474 0.1706107373853764 0  0.2154508497187474 0.1524471741852423 0  0.1845491502812526 0.1524471741852423 0  0.1595491502812526 0.1706107373853764 0  0.15 0.2 0  0.1595491502812526 0.2293892626146237 0  0.1845491502812527 0.2475528258147577 0  0.2154508497187474 0.2475528258147577 0  0.5404508497187474 0.2293892626146237 0  0.55 0.2 0  0.5404508497187474 0.1706107373853764 0  0.5154508497187473 0.1524471741852423 0  0.4845491502812526 0.1524471741852423 0  0.4595491502812526 0.1706107373853764 0  0.45 0.2 0  0.4595491502812526 0.2293892626146237 0  0.4845491502812526 0.2475528258147577 0  0.5154508497187473 0.2475528258147577 0  1.1 0 0  0 0.205 0  1.1 0.41 0  0.55 0 0  0.55 0.41 0  0.275 0 0  0.275 0.41 0  1.65 0.41 0  1.65 0 0  1.375 0 0  1.375 0.41 0  1.925 0 0  1.925 0.41 0  0.8250000000000001 0.41 0  0.8250000000000001 0 0  1.5125 0.205 0  1.7875 0.205 0  0.9625000000000001 0.205 0  1.2375 0.205 0  2.2 0.205 0  0.7560964076246335 0.2151713709677419 0  1.99375 0.2152743902439024 0  2.0625 0 0  0.6875 0 0  2.0625 0.41 0  2.2 0.3075 0  0.6875 0.41 0  1.7875 0.41 0  1.375 0.1486128048780488 0  1.5125 0 0  1.7875 0 0  1.5125 0.41 0  0.9625000000000001 0 0  0.9625000000000001 0.41 0  0.4125 0 0  0.1375 0 0  0.1375 0.41 0  0.4125 0.41 0  1.2375 0 0  1.1 0.1486128048780487 0  1.2375 0.41 0  1.65 0.1486128048780487 0  1.126715909090909 0.2793064024390244 0  1.676715909090909 0.2793064024390244 0  1.348284090909091 0.2793064024390244 0  0.34375 0.3032389320646208 0  1.894702181800738 0.1282910975492754 0  2.092797818199262 0.1282910975492754 0  1.85625 0.3075 0  0.8630851210521902 0.286932093388664 0  0.89375 0.1025 0  0.35 0.1090282786671641 0  0 0.3075 0  0 0.1025 0  0.6526217841291382 0.288229645480046 0  0.7562500000000001 0.09660248895515888 0  0.6568633732316684 0.1557582854763441 0  2.099172119769978 0.25625 0  1.002356446954348 0.1010393851523063 0  1.99375 0.08395950269330846 0  1.459960956013612 0.3075 0  1.569025960719943 0.2986889805672169 0  1.03125 0.3278689922742084 0  0.75625 0.3247156761655783 0  1.959375 0.3126371951219512 0  1.749222215368287 0.1025 0  1.275777784631713 0.1025 0  2.2 0.1025 0  1.225938124459196 0.3075 0  1.550777784631713 0.1025 0  1.44375 0.07430640243902442 0  1.16875 0.07430640243902437 0  0.3528655045338512 0.2063263890916129 0  0.5890337614812103 0.08775733857679162 0  0.8504912436891263 0.190072835691683 0  1.899250267340833 0.2229966846119207 0  0.1020898364287272 0.3140258291809757 0  1.766482954545455 0.2934032012195123 0  1.051658316544432 0.2265720188842194 0  0.2 0.3400647632937836 0  1.421109702350723 0.2261157654379721 0  0.4812500000000001 0.41 0  0.4324401666997539 0.3216425986889796 0  0.098916018031319 0.09171660955420841 0  0.9508742791313441 0.2921736960864468 0  2.13125 0 0  2.118919042110979 0.3422084711244843 0  1.30625 0.41 0  0.20625 0 0  1.597888256393107 0.2173787389261347 0  0.4812500000000001 0 0  0.4324082967851086 0.08384041677422771 0  1.829299675393195 0.07400700849299596 0  0.568219932524165 0.3212274660843853 0  1.71875 0.41 0  0.268005226542646 0.08512186835670006 0  1.16875 0.41 0  2.038220665644273 0.332420740103091 0  0.6678017527842831 0.07701763866051195 0  0.89375 0.41 0  0.5111435174287687 0.07335351331957608 0  0.176193934632343 0.0734896648625108 0  0.07390688010811153 0.1697064032433452 0  0.05452951551825875 0.25625 0  0.61875 0.41 0  1.452769549894695 0.1548122580621249 0  1.369219062229598 0.07430640243902442 0  1.30625 0 0  1.720943423819132 0.1714577452753128 0  1.157188124459196 0.205 0  1.094219062229598 0.07430640243902437 0  1.304056576180868 0.1714577452753128 0  1.67579304192913 0.07430640243902437 0  0.2672907219039591 0.3037570723459566 0  1.209670467133757 0.1362100266964769 0  1.58125 0 0  1.03125 0 0  0.06875000000000001 0.41 0  0 0.35875 0  1.58125 0.41 0  1.631724228912893 0.3381867502687533 0  0.8240147050827157 0.1225233169495944 0  1.825608881788174 0.14499488549201 0  1.85625 0 0  1.44375 0 0  1.44375 0.41 0  1.85625 0.41 0  2.13125 0.41 0  0.7562500000000001 0.41 0  0.7562500000000001 0 0  0.89375 0 0  0.34375 0 0  0.34375 0.41 0  0.20625 0.41 0  0.06875000000000001 0 0  1.16875 0 0  1.03125 0.41 0  0.61875 0 0  1.71875 0 0  1.99375 0 0  1.99375 0.41 0  0.3972301426712326 0.2593842555611471 0  1.340625 0.3489494290853124 0  1.134375 0.3489494290853123 0  1.700180620188976 0.3438659752031281 0  0.5003922072260507 0.341765274319271 0  0.6212513815748759 0.2209216137134851 0  0.6885607720119526 0.215393731583638 0  1.033412357328477 0.1612902025713047 0  2.135782184673599 0.07126652247502523 0  1.668441847249787 0.2129203728327609 0  1.295782514339747 0.2378437748815763 0  1.409375 0.3520314716057996 0  2.129248544730567 0.1906135162504124 0  2.060771381434487 0.1989445750470348 0  2.013252586573865 0.1496169464686054 0  1.942766402200229 0.1734448904596831 0  1.895522487186454 0.06076163953489683 0  2.069553871656643 0.06605731020975725 0  0.9281250000000001 0.3539050257418612 0  1.274680914880868 0.3520219391081363 0  0.3030138498135347 0.2488370856812789 0  0.8223773249563684 0.341761430177996 0  0.9018164060227267 0.2326477848736739 0  0.8143027982392851 0.2440265179987191 0  0.7225087161029304 0.2699907246386231 0  1.614713220494657 0.09473434380863296 0  0.378125 0.3566194660323104 0  0.309375 0.3566194660323104 0  1.72990325744076 0.2380068107952482 0  0.6915936999299305 0.3429472631234433 0  0.6268087624932918 0.3466455500035671 0  1.356580098625191 0.2120393231351682 0  0.3060160055995138 0.1590148921620778 0  0.3954648733249218 0.156380553890791 0  2.034370752044885 0.2668681600792073 0  1.51768709249349 0.3426260931494756 0  1.561883724969884 0.1650446847858835 0  1.197344062229598 0.2523725417393646 0  0.9281250000000001 0.05124999999999999 0  1.804085235518364 0.3468178408964637 0  1.817887819205233 0.2589243285818559 0  0.9107805776841645 0.1653834539923287 0  1.905897727272727 0.3485060975609756 0  0 0.05125 0  0.844212276491354 0.0614201194265309 0  0.378125 0.05244637078450034 0  1.008571329007178 0.2705955969954818 0  0.7724048032149464 0.1559079561351474 0  0.7203054377831548 0.04941826955193545 0  1.192836486056382 0.3562350748565544 0  0.5967108020713719 0.1479294686523888 0  1.28257088594801 0.2944411014911587 0  0.7041890234548132 0.1222025174424443 0  1.474860187679412 0.2504218616229368 0  1.406767003493824 0.2829282258560709 0  0.3201325899091991 0.05890121548989159 0  0.5979220912872258 0.2727591995766724 0  1.845656689180403 0.1998310418452388 0  2.144958525570388 0.2909790873294231 0  2.2 0.15375 0  1.57794966442982 0.3540357145964566 0  0.9483181579620558 0.1214693369582054 0  0.0496154796471391 0.333125 0  1.508991196088596 0.1421783375065625 0  0.09776612425612034 0.2204896805326566 0  1.50436820029908 0.06143401634903343 0  1.223857000523521 0.0823554862453532 0  0.2531953886959507 0.3582003209055908 0  1.153316824384777 0.1289850171317837 0  2.148922302309752 0.1258841779285271 0  1.621993280276081 0.2841214267927899 0  1.550118654119087 0.2461998729100966 0  1.327182649291491 0.1216967252533594 0  1.753125 0.04556020050186112 0  1.271875 0.04556020050186116 0  0.9824282234771738 0.05051969257615314 0  1.039510847866381 0.05683351822678641 0  1.94956388244759 0.1180512551534177 0  1.949997712993411 0.04965831614304109 0  1.771961817615021 0.1530278789497521 0  1.909246823951428 0.2812757146784527 0  1.101974016627944 0.2038045618205013 0  0.7906250000000001 0.0444674049654372 0  1.948575539857022 0.2445328248721197 0  1.697271520964565 0.1233917627620729 0  1.065625 0.3689344961371042 0  1.085849084308977 0.3170853572226867 0  0.9840604787624379 0.3582077516409966 0  1.577403511714593 0.05463601888079143 0  0.05622663515370135 0.05493816910862376 0  0.8762396958822678 0.3392249777398821 0  1.751571320346033 0.3651102912045228 0  1.055327852410105 0.111864799513911 0  0.1583785085108421 0.2994699345738728 0  0.1455283439499995 0.3542795598723423 0  2.2 0.35875 0  0.225705107073232 0.05084786997482401 0  0.1455852234589313 0.1166494778469164 0  1.466879772203159 0.3611261772912453 0  1.990280163552011 0.3564754268533217 0  1.17471064520912 0.2990917256188288 0  0.7221925551074015 0.1739659241003985 0  0 0.25625 0  2.2 0.25625 0  2.2 0.05125 0  0 0.15375 0  1.853978576207987 0.35875 0  0.21965520498276 0.1015543880164422 0  1.515638456102889 0.2882700110184686 0  0.09048297387599738 0.3637717362208066 0  2.150453692751374 0.2387066338105111 0  1.323782677156475 0.04897634338873398 0  1.409375 0.03715320121951221 0  1.406484531114799 0.1087852750766809 0  1.134375 0.03715320121951218 0  1.627401732573545 0.04552157221025036 0  0.446875 0.3713289093361426 0  2.045405893604797 0.1105340662939892 0  1.255408269734577 0.1577307500159216 0  2.028125 0.03707597992059326 0  0.04420832937638274 0.128125 0  0.5817551710628505 0.3702615006034757 0  0.1197849154434487 0.2663398672460083 0  1.248258025468107 0.2565907092181813 0  0.1300647302703173 0.0508462728378621 0  0.7738123537510222 0.2761231499240648 0  1.203125 0.0366132337404304 0  0.5444207041612499 0.111205399508622 0  0.8016457771828226 0.1964238426015905 0  2.072662025974815 0.2975086504196739 0  0.4019040438866802 0.2103993403217561 0  0.4677372330974851 0.04827477407630658 0  0.8677218578847617 0.1432970430140788 0  1.058011122005847 0.2758866204059919 0  0.4429405887974043 0.2746184809910084 0  0.5843750000000001 0.03726989681835222 0  0.6318596133730142 0.1128692182767254 0  0.4862628454464408 0.2957029785303028 0  0.7805186758662764 0.3673578380827891 0  1.887722846421017 0.1760882698830035 0  0.3498893058880703 0.256189258793856 0  1.472640588990488 0.1118278026240017 0  1.865937103925594 0.2604137786483804 0
[...]
<PointData  Scalars="f_43"> 
<DataArray  type="Float64"  Name="f_43"  format="ascii">4.1874533435285050e-01  4.6041638405766916e-01  -1.1895929938695779e-11  -3.1348339569051752e-10  -3.5691568641531241e-01  -3.0502240672982073e-01  -3.2085792173277056e-01  -4.7594571013210674e-01  -8.8739927473780023e-01  8.7875322411604595e-01  1.9995065308121385e+00  3.9750486714614325e-01  -1.1497998737942372e+00  -4.9605404692390748e-01  -2.0944623365582576e-01  -1.8060436061631246e-01  -2.2218203039685611e-01  -4.3011081831611836e-01  2.3543524575586713e-02  -9.3691808721025255e-02  -4.1112570539957849e-01  -2.1223867841809388e-01  -8.9167244927148802e-03  -4.6985350145369442e-01  1.5597469137849196e-01  7.6768744000753208e-01  1.5041170365750217e-01  -2.1104813524556715e-01  -2.0706026510462835e-01  -5.4957473452996765e-03  1.6279933741900302e-03  7.7431436649687282e-02  7.7403814347167380e-02  1.1609357075181423e-01  1.1585472804746975e-01  3.8439022549037298e-02  3.8532640735899411e-02  1.2542256755670954e-03  1.7181329251636648e-02  9.6586242562700902e-02  5.7963502921644663e-02  1.7024937266385048e-01  1.3431389559165777e-01  -8.8666290291006111e-10  -7.8634309565387889e-02  2.8937689625772943e-02  1.8911133043854285e-02  -1.0522740946050591e-01  1.9693747009376907e-02  -8.8884572646125402e-10  -1.1557431212719531e-01  5.8256861342544035e-02  1.1600732822911489e-01  9.6813379473960764e-02  5.8210476826088098e-02  9.6973855479724522e-02  9.6219357298385974e-02  9.2156355902805062e-02  -2.1858310379565862e-01  3.7763974422012397e-01  3.4222830316875763e-01  -2.0292661764132089e-01  1.3711679653108508e-01  1.4955826435268813e-01  1.3578320691174628e-01  7.7226963959478465e-02  1.4596708281710161e-01  7.3500374934417481e-02  1.1956703860807681e-01  -3.2664604599787223e-01  4.2869039002249143e-02  1.4982854681559835e-02  4.8330031142786591e-02  8.0930790784493417e-02  9.7768892961008616e-02  -4.1605697868891073e-01  5.1669062629765894e-01  5.5991500532742788e-01  -1.3184291859994546e-01  -3.6267481845407380e-02  -1.3313719872501414e-01  1.4115918889520981e-02  1.3697092172994402e-01  2.8967890676678380e-02  1.0393722902745169e-01  8.8573962212831328e-02  1.3685615222923456e-01  -4.9306634180447791e-02  3.3855760354634036e-02  6.3277558575117104e-02  1.3033597299865396e-01  2.0322094009567884e-10  1.3628137628705247e-01  9.1258592834183333e-02  1.0639597061072469e-01  1.4664459085935758e-01  -4.9398792071685044e-01  -1.9165178253630255e-01  1.4008246864366353e-01  4.2234037071904554e-02  4.5951021969104655e-01  6.0942162956881492e-02  1.5302159972987422e-01  1.4182804635110324e-01  1.0939078304893549e-01  -2.1605939379807609e-01  -2.6590692220716622e-01  4.9979579809013225e-01  1.2632210982628986e-01  9.4349581986762753e-03  1.1238788406061040e-02  1.2568413367361486e-01  2.0293421448673279e-01  8.4560208451040689e-02  -2.2470465260084813e-01  -2.5892590690310369e-01  5.2158763649557627e-02  -2.0111641038091829e-01  6.7491365999998928e-02  -1.5152193705123607e-01  1.4564126307068584e-01  2.2709883340232960e-02  -1.2473475462588492e-01  4.3271725101832866e-02  -2.1264898072462429e-01  2.2329278218527493e-01  9.0297817770938416e-01  7.1968842348995932e-01  -1.7519286367968295e-01  1.0503984516845129e-01  1.1700195890856828e-01  1.2652386861414686e-01  6.7261400401077823e-02  1.4370960797063834e-01  1.5213510235652553e-01  1.2575277494379783e-01  7.3533670079535457e-02  -2.0672498821654825e-01  1.3875246392889418e-01  8.7042927881183466e-02  1.4201823079056544e-01  4.0648276696660873e-01  4.3108455725211486e-01  8.6643086757052346e-02  7.9832675093268454e-02  4.9653255393837116e-02  5.2591615281110886e-02  4.8087372981064608e-02  1.0641656272012265e-01  1.0608258040122903e-01  4.8133854106130081e-02  9.6044410429540275e-03  -5.0992366975286758e-02  -3.3472393436081355e-02  5.1037970017871144e-02  -1.6087226457439702e-01  -1.3534976604729879e-01  1.8739348107204604e-01  4.4619860035181447e-01  1.4840726056416245e-01  1.3560695165518971e-01  -1.7026466609335447e-01  6.7591656970790726e-02  2.8887856147785360e-02  2.8584460124174149e-02  -4.9068292631784732e-01  1.2070731643666363e-01  1.4815465271426448e-01  7.0205227837737416e-02  -2.1890567780109194e-01  -1.5812790204190480e-01  -1.1477402651608071e-01  1.5435292435539760e-01  8.9486613974568228e-03  7.4652583925499671e-02  1.2667530241872840e-01  1.1109305763988016e-01  9.9108919616275951e-03  1.9520740365918346e-02  2.6164993794954010e-02  3.6103883568599254e-02  4.2690032448745668e-02  1.8151410019342191e-02  7.0598288739572052e-02  1.3018264465754845e-01  -3.9433127022407710e-01  8.9141053446486745e-03  1.6489525793108126e-01  1.9018339718075497e-02  -9.9576562212258024e-02  8.2195443244533012e-02  -2.0632499252700917e-01  -1.1423519927521783e-01  6.6043808484605990e-02  -1.0996735847432648e-01  -1.6701808206378688e-01  1.1840497913729768e-01  -3.6543952019488085e-01  -6.5119942436183320e-01  2.3228643456333499e-02  9.5796355851945028e-02  8.9656279303130387e-02  1.3909309599835742e-01  7.2754928731676882e-02  5.5730596070857771e-02  5.3693466531916693e-02  1.6538333151375459e-01  4.1321706273985064e-02  4.7329261526514266e-01  3.8576443162538034e-02  -2.3055438150094987e-01  1.4693299910119650e-01  -4.1363696897995822e-02  -6.7198035017161317e-02  1.4207456561966389e-01  -1.7822046136392297e-01  1.2861238920945200e-01  -9.7150344674307110e-02  1.0185372563601945e-01  1.1141996499221388e-01  -1.6190866410522650e-01  -1.7638452816258138e-01  4.9781113227100507e-02  7.6885257589651953e-03  5.8257419908228869e-10  8.7238164100392895e-02  1.3466840078742015e-01  4.5487625910555812e-01  9.7108124659134834e-02  1.1189119970612087e+00  9.7900483583345688e-02  1.3826031572934602e-01  1.3370498965967819e-02  1.4553284851972187e-01  7.1417119050149859e-03  8.1168513489343688e-02  9.1262149669831566e-02  1.2283078932372586e-01  6.2765981137197474e-02  1.3155049730209076e-01  1.1112585697153061e-01  1.4360127541970086e-01  3.5163288791063653e-02  3.5041765508482335e-02  6.0122640013217293e-02  4.0844457918364947e-02  1.4922042373484809e-01  -3.1980351675290556e-04  3.5313348227514758e-02  7.0585800805343643e-02  1.4597803473900903e-01  1.4650306880399150e-01  1.0864655238709840e-01  8.7403413897255589e-02  4.6653019912918536e-01  4.9725842478202248e-02  6.3037839459553838e-02  1.4866811547423264e-01  2.2679146303547315e-01  3.1627981586565918e-01  5.4365485464443527e-10  1.0298770195913352e-01  3.5054808976791618e-01  1.0293034760634279e-01  2.9533449700523011e-02  1.4224942679472333e-01  -1.0204544231933298e-01  6.7036374943472665e-01  -8.8884572646125402e-10  -1.4898794998055233e-09  7.0219055562568333e-01  4.8669026944264469e-02  -1.2477193036656105e-01  9.6098079025930414e-02  3.9771483073479469e-01  6.9354346074348480e-03  1.2374833898059989e-01  1.1124734218927167e-01  1.1165406511982789e-01  1.5323315320410036e-01  8.0400647375055589e-02  -2.1436548762295310e-01  2.1616192492824628e-02  1.3243583138982107e-01  2.4009279337432229e-02  6.4651027949147755e-01  -1.9555247752603064e-01  6.6480076939015376e-01  1.3291834504547742e-01  3.8328604077711648e-01  -4.9653959430097691e-02  1.4265689267948231e-01  -2.3116186976350805e-01  3.4763458245316160e-02  1.7834609180079779e-02  -4.9793349406676779e-01  -2.1986163121625696e-01  1.2407533914894137e-01  1.4755777624915789e-01  -3.0548366075596950e-01  -1.9644897809117712e-01  -1.5145941794577827e-01  -2.1646436023376706e-01  -2.7212496283368578e-02  4.3861838350161851e-02  -4.6492619373794458e-01  1.0224103777240730e-01  4.6932426640371804e-02  1.5281369746184947e-01  1.0341960742410546e-01  -1.3666561960923884e-01  1.1563022835912609e-01  -8.1789488603953145e-02  -1.6259559948040625e-01  -6.9569725330811738e-02  1.6002863375666507e-01  -3.2035010646649936e-01  -1.7165173060320241e-01  6.7146247791625313e-02  -2.3626396668897104e-01  -3.1745552546496614e-01  5.9861227796091855e-02  1.3198690619203247e-02  1.1303652659577891e-01  1.9611349232200287e-02  2.4247076480762686e-02  -3.8191959572695161e-01  -3.2098308402780373e-01  8.3852652223080595e-02  -5.4315017605931371e-01  9.1377454031735450e-01  5.4544338663293480e-02  8.4275424968174606e-01  2.9422603591341297e-02  1.1593431759937044e-01  9.7126237608349500e-02  5.2206409671473886e-03  1.4476274628109517e-02  1.7416673973340846e-02  1.2751227550634656e-01  1.5555272048356356e-01  8.1937343653162242e-02  -1.4174267300324625e-01  -4.5052905818866168e-01  5.7101859161105134e-02  2.2691401564296519e-02  2.7191250927381470e-02  1.1474575830376299e-01  1.3945522008965702e-01  1.0123630972282611e-01  7.9850565538859372e-02  -2.0878957975846801e-01  -2.2457176069310092e-01  9.1504414733960371e-02  7.2144014505672593e-02  6.9038211274927361e-02  5.5125780328008720e-03  5.6398230820191662e-03  4.1625716523268996e-01  -3.3221564834127820e-01  -4.7285415826506354e-02  7.9381065320658403e-02  5.6643496797218175e-02  4.6701229860725613e-02  1.1114599029268448e-02  9.1627942104486854e-02  3.5704364555432071e-02  5.8724189891034347e-02  1.4865508012668391e-01  5.3143810307965916e-02  6.5181837247729413e-02  3.0103822337005776e-01  7.5426721501413829e-02  -2.2058938851189286e-01  -2.1236243992761664e-01  1.5382995958996729e-01  2.7550400181600271e-01  2.0072753844131059e-02  1.3149895320462432e-01  9.0796935074781218e-02  -2.2929313243931446e-01  1.3615397023084999e-01  1.4818381042820499e-02  1.0294215930101949e-01  8.5691785875305904e-02  -1.9285642826406960e-01  -1.1050683179519212e-01  1.5223406342889181e-01  1.4926808649650838e-01  1.4363014378571040e-01  1.4686461625780173e-01  1.6220802855741454e-01  5.4858719130063726e-03  4.2238765001737727e-01  1.2344964999290421e-01  -1.1107945270078862e-01  -1.7322252453635864e-01  -8.8203694028299792e-02  2.9578786207635606e-02  -3.3570414507258550e-01  4.3307807885926995e-02  3.4539589059245514e-02  4.8119330898124840e-02  4.3471886400710161e-02  3.8088845116621937e-02  1.0631478677566333e-01  9.6860814941805734e-02  6.8417011094710461e-02  7.4957124325384969e-02  7.6790839348380227e-02  4.5774597756353191e-01  4.1914245685169099e-01  2.2797787459542727e-02  1.1046106379994823e-01  2.0280439830688633e-02  -8.9269548242244881e-02  6.7298675851301171e-02  1.3813481178134374e-01  5.5293178606325177e-01  -1.6778188355945811e-01  6.9912027233272134e-01  -2.1781436854765629e-01  5.9213168966054539e-02  -7.2924832222903191e-02  1.0256759561546161e-01  -1.8566428504215199e-01  9.9851888513615983e-02  7.6612240855294500e-01  -1.6727290063018269e-01  2.3428956944236634e-02  1.0621308797439162e-01  2.4494147586616133e-01  9.6537121090308542e-02  5.9410685173564393e-01  9.4201010788484446e-02  -7.3265506939877503e-02  6.3567917677876673e-02  1.2914055713428216e-01  6.5646192573200493e-02  1.2759838914274715e-01  1.1696551130221539e-01  1.1829373450985367e-01  1.5001279056294037e-01  7.2210222247833439e-02  1.2106697544762814e-01  -1.3649817214633758e-01  3.1724010158427976e-02  -1.2831771473202114e-01  -1.4133265030679226e-01  1.4202069201851789e-01  1.3444229312631703e-01  5.3466244001152785e-01  8.3887638033778397e-02  7.4775951749251904e-02  2.3822038038546992e-01  4.4155573318703784e-01  1.1712510232615500e-01  5.0354227593823253e-01  8.0407413086702739e-02  -1.1955855965871993e-02  8.4914034300383828e-02  -2.1841350496743145e-01  9.3992998486434484e-02  5.3307100832148048e-02  -1.2191912154604483e-01  4.5406289664195257e-02  1.9201535507869787e-02  2.4247826622298550e-02  1.2534205352392608e-01  1.2770722176177701e-02  6.7537707174943257e-02  1.1609406670109325e-02  5.1509950400327334e-03  6.0202145540536309e-02  9.2230126372809390e-02  -3.5192621921586076e-01  1.1144133101630357e-01  1.4883600697459634e-01  4.8978970722079540e-03  1.1146792561298706e-02  3.4125491111198634e-02  1.2676286171683896e-02  1.3841469753909721e-01  4.7993682931689575e-02  5.5887969801837148e-02  -1.9041331172443905e-02  -2.2667599631896854e-01  -2.1430608464507767e-01  9.6506678938110754e-02  -1.2419900393412127e-02  -3.1434452703786052e-02  -2.1444624870492682e-01  -2.0626781885627968e-01  1.3665628549036102e+00  1.3163005263430033e-01  1.4284971980598030e-01  1.4677936797222185e-01  1.4929546492458526e-01  1.2537649462698769e-01  1.2080945790763810e-01  1.1603121366835166e-01  1.4575673878272802e-01  1.0793114896717100e-01  1.0951814884035365e-02  1.4129715275850910e-01  -5.3864536946910890e-01  -2.2509926635275002e-01  4.8587524142484247e-02  -3.2927219319705991e-01  -2.2290688572515313e-01  1.3689802175540863e-01  -4.4227719053984604e-01  -4.9820172967681642e-01  1.1080875735991894e-01  7.2731053467149157e-02  2.9008602797520079e-02  2.3969849317662321e-02  3.3677057206208769e-02  1.3055363308158810e-01  -2.1299828636372259e-01  1.5019712898350579e-01  1.4726149182815929e-01  1.4627221418928874e-01  1.4829802504882575e-01  1.2123592642538090e-01  4.5616453150942255e-03  1.4619954699484971e-02  1.1125869455246933e-01  1.0134967738094720e-01  6.2848214615850981e-02  1.4626308126325499e-01  6.2563866158824824e-02  -6.6381987683756249e-02  7.1464371149038905e-02  6.8114637393254782e-02  1.1143147362376479e-01  1.5295547613221872e-01  4.5063779800457084e-03  1.5309167456522371e-01  -2.1288226568785046e-01  -1.9860492953808009e-01  -1.7648127870984501e-01  3.8309935951124718e-01  9.4507315033902181e-02  -2.2962675482246706e-02  -1.9648368379674341e-01  -1.9554646364057435e-01  -5.3814892515302937e-03  -7.9137282332117656e-02  -1.4956195716773293e-01  -2.0466509039990474e-01  -1.4822249079263025e-01  1.4284205630743069e-01  8.1850890810297811e-02  3.4157155175035134e-02  1.3157268608330133e-01  2.3941981517360652e-02  3.3923903351706669e-02  1.2284441219758827e-01  6.7828839917581971e-02  -1.1666703426820628e-01  2.6555352946817132e-02  1.6890561296094814e-01  1.7895129781334873e-01  1.7274958710963900e-01  1.0701550015951958e-01  1.4341617190836470e-01  -2.9457971233227092e-03  3.7750470203528910e-02  -4.3438651288727392e-01  -4.0369869583001244e-01  -1.1239707451035791e-01  1.4809788995217002e-01  1.2148037736791996e-01  1.2449547394509021e-01  1.5753393865560927e-01  3.9933481753834738e-01  1.4413011678740201e-01  9.2904618581062484e-02  9.9117179838676447e-02  -1.0259191375635160e-01  4.0901841416698635e-02  2.8424328157771900e-01  1.0656360496218718e-01  1.0860658722919864e-01  7.0046140502670579e-02  4.3209041417034744e-02  1.5129262739524002e-01  -1.0290287655867833e-01  6.9309952346467321e-02  -9.5576563425577618e-02  5.2163485584179645e-02  7.4684340404576707e-02  1.2432177417365832e-01  -1.3921594684716287e-01  3.8544051414503191e-02  9.9040026866093367e-02  7.3629529147544948e-01  -1.6618690268570141e-01  1.2854933099737409e-01  8.4359455073997683e-02  -3.7998937202001776e-01  3.9405618781818891e-02  1.9251819393594386e-02  1.5716781733517825e-02  1.1750173142989367e-01  7.9844336404653815e-01  1.3412107584248784e-01  1.5534864309825350e-01  3.8697584433522933e-02  4.0097082755224410e-02  3.6094689262308244e-01  1.5923274532280575e-02  3.3416242829205800e-01  8.4588259911159633e-02  2.2502926916097513e-02  -5.7319920384288026e-01  -6.2934272605690678e-01  5.5593708561495210e-02  -4.4498306000128890e-01  9.3221580244525426e-02  5.1524113328733641e-02  7.0584244737791263e-02  5.0198026904944126e-02  3.3499819174537183e-02  1.3259692417747002e-01  4.4434375209015126e-03  8.3519104112918990e-02  -3.6258798110782142e-02  8.8550912105664709e-02  -2.4431516257831665e-01  8.6886510836021433e-02  7.8240734495706843e-02  4.0997156480549614e-02  1.9860481437566774e-02  -1.1063370315126199e-01  -6.9835984889932687e-02  -9.7308904233986526e-02  1.6253712174946533e-01  8.9161938638232685e-02  -1.9054461538678860e-01  -1.6882785887966764e-01  -1.8721716363239310e-01  8.4692344570346703e-02  5.8925101890575338e-01  9.3698364110268315e-02  -2.9306420665326755e-02  -1.3114810966170129e-01  1.2078606125190933e-01  -3.3252429839122061e-01  4.5829405075372524e-02  -4.2742011978130612e-01  1.4847793068504675e-01  -1.7836221954861586e-01  -2.0786595802612828e-01  -2.6476325571837689e-01  3.6447625808718472e-02  1.3571135515458352e-01  8.9347984324539886e-02  5.4640772067966817e-02  1.4024426818928407e-01  -1.4484056948987818e-02  1.1198759644298983e+00  6.3643975636452854e-02  6.2204295600453895e-02  -2.8342239242530332e-01  1.3146381970978105e-01  1.3642288244379602e-01  7.5461638184233598e-02  1.0197642745033178e-01  5.7117249402794550e-02  5.1102763835572447e-02  1.4954845016381410e-02  9.8816063343888913e-02  3.1845728070317429e-02  8.1380259789178386e-02  5.4764137434103882e-02  4.6081322496803845e-01  4.5906735792350017e-01  9.2688690167033391e-02  -3.1186366326584686e-01  4.2260433724546007e-02  1.3944799615963566e-01  1.5233439232698262e-01  1.3974143023406876e-01  1.2750930476701300e-01  1.6148558873717359e-01  5.9845878952339826e-01  -3.4506351757464408e-02  9.1393200830461041e-02  6.2506137113044577e-02  2.3550777507762408e-01  -1.2490940212115249e-01  3.0793877396454165e-02  1.2035736470588219e-01  -1.9513112052124837e-01  -1.5375185580090306e-01  -4.2899060803467354e-01  1.3354599923161975e-01  5.0913204676509741e-02  -1.9801162790275006e-01  4.4357266108146298e-01  7.4952881991940545e-01  1.3933096918997776e-02  -1.1720959093243637e-01  5.2297125357219532e-02  1.3589193366921321e-01  8.0123442367488168e-02  4.5131433147783104e-02  -8.8666290291006111e-10  -2.5414800268151000e-01  7.7499595072674635e-02  4.8463128307635510e-03  -2.1399341000261760e-01  -1.3163739081693235e-01  1.9025037667333780e-02  -9.4878658052944376e-02  3.8278289173030300e-01  3.6793207355049101e-01  4.2705565944138990e-02  1.1342772161621585e-01  1.0516409423853983e-01  1.0211829962624595e-01  9.9192747524704430e-02  1.0706265793682436e-01  4.6298579755414335e-02  -2.3171634610645089e-01  1.1541731807800865e-01  1.0963765406577097e-01  1.4384336978838438e-01  1.4408459063402426e-01  2.0068282523449346e-02  -2.8150885695883215e-01  4.5540411447966618e-02  -1.4636260532312656e-01  3.8215583703108284e-02  2.0322094009567884e-10  1.3275238621291846e-01  1.2902193726149155e-01  1.2960150252033459e-01  -1.0706863690672426e-01  6.5975895245325183e-02  1.5490243207577764e-01  1.4766600906351057e-01  1.4965203334055197e-01  1.3821183570391568e-01  1.1963447010005410e-01  2.7008636451730472e-02  1.4261514729077379e-01  1.4900711836462086e-01  1.2942259941879550e-01  1.0109669590801926e-01  7.8736246244743388e-02  1.0155958271012340e-01  3.9874219347205292e-01  1.4791526991267881e-01  6.0461397283825213e-02  4.0759635226165505e-02  8.8854534479460914e-03  9.7754135662804012e-03  4.0639979298279531e-03  -2.0846736815812211e-01  4.6048210455221443e-02  2.9829784439382282e-02  1.4121861250763423e-01  -1.7455568915363995e-01  1.2752481516614553e-01  6.5186037009445127e-02  5.9875135344814416e-02  -1.8594048295432417e-01  -1.9900456939646674e-01  8.5316768537583215e-02  -1.4467764978626391e-01  -1.6662775450373118e-01  -1.9549656697014489e-01  1.4236191123145725e-01  1.4547914268330700e-01  1.2108569453855120e-01  -3.9047600962631229e-01  1.3823580634015697e-01  -8.2898269330229993e-02  1.2920729451617838e-01  3.1159643204537996e-01  1.0902100800606480e-02  1.5197615413282695e-01  -4.4584763988912757e-02  -8.8666290291006111e-10  1.0795312894986304e+00  8.7734896668468643e-01  1.2499883796781397e-01  6.1002081624644357e-02  -1.0346046433823330e-01  8.7549297641542220e-02  8.3184282844711840e-02  -8.3097020744308275e-02  3.9252756233836811e-02  -1.5574016014119874e-01  5.1738103448094697e-01  4.6210321762881917e-01  4.6677245223382063e-01  3.6370072744234511e-02  1.5478693969261614e-02  9.4252780027190314e-02  8.9239084185589040e-02  8.7721398959924562e-02  1.1972168166291934e-01  5.4061878216727666e-01  1.4251479379215989e-01  -3.7252519126373107e-01  8.1724633668692259e-02  5.3921623929508666e-02  5.9141045541741211e-02  3.8885842430885817e-02  3.7184368320866329e-02  -2.5289005894206978e-01  6.6479866985498140e-02  -2.0580297328420469e-01  6.1892574261072565e-02  1.4325255133695661e-01  1.0804499144225699e-01  1.519679365267726