<?xml version="1.0"?>
<VTKFile type="UnstructuredGrid"  version="0.1"  >
<UnstructuredGrid>
<Piece  NumberOfPoints="2426" NumberOfCells="4534">
<Points>
<DataArray  type="Float64"  NumberOfComponents="3"  format="ascii">0 0.41 0  0 0 0  2.2 0 0  2.2 0.41 0  0.2404508497187474 0.2293892626146237 0  0.25 0.2 0  0.2404508497187474 0.1706107373853764 0  0.2154508497187474 0.1524471741852423 0  0.1845491502812526 0.1524471741852423 0  0.1595491502812526 0.1706107373853764 0  0.15 0.2 0  0.1595491502812526 0.2293892626146237 0  0.1845491502812527 0.2475528258147577 0  0.2154508497187474 0.2475528258147577 0  0.5404508497187474 0.2293892626146237 0  0.55 0.2 0  0.5404508497187474 0.1706107373853764 0  0.5154508497187473 0.1524471741852423 0  0.4845491502812526 0.1524471741852423 0  0.4595491502812526 0.1706107373853764 0  0.45 0.2 0  0.4595491502812526 0.2293892626146237 0  0.4845491502812526 0.2475528258147577 0  0.5154508497187473 0.2475528258147577 0  1.1 0 0  0 0.205 0  1.1 0.41 0  0.55 0 0  0.55 0.41 0  0.275 0 0  0.275 0.41 0  1.65 0.41 0  1.65 0 0  1.375 0 0  1.375 0.41 0  1.925 0 0  1.925 0.41 0  0.8250000000000001 0.41 0  0.8250000000000001 0 0  1.5125 0.205 0  1.7875 0.205 0  0.9625000000000001 0.205 0  1.2375 0.205 0  2.2 0.205 0  0.7560964076246335 0.2151713709677419 0  1.99375 0.2152743902439024 0  2.0625 0 0  0.6875 0 0  2.0625 0.41 0  2.2 0.3075 0  0.6875 0.41 0  1.7875 0.41 0  1.375 0.1486128048780488 0  1.5125 0 0  1.7875 0 0  1.5125 0.41 0  0.9625000000000001 0 0  0.9625000000000001 0.41 0  0.4125 0 0  0.1375 0 0  0.1375 0.41 0  0.4125 0.41 0  1.2375 0 0  1.1 0.1486128048780487 0  1.2375 0.41 0  1.65 0.1486128048780487 0  1.126715909090909 0.2793064024390244 0  1.676715909090909 0.2793064024390244 0  1.348284090909091 0.2793064024390244 0  0.34375 0.3032389320646208 0  1.894702181800738 0.1282910975492754 0  2.092797818199262 0.1282910975492754 0  1.85625 0.3075 0  0.8630851210521902 0.286932093388664 0  0.89375 0.1025 0  0.35 0.1090282786671641 0  0 0.3075 0  0 0.1025 0  0.6526217841291382 0.288229645480046 0  0.7562500000000001 0.09660248895515888 0  0.6568633732316684 0.1557582854763441 0  2.099172119769978 0.25625 0  1.002356446954348 0.1010393851523063 0  1.99375 0.08395950269330846 0  1.459960956013612 0.3075 0  1.569025960719943 0.2986889805672169 0  1.03125 0.3278689922742084 0  0.75625 0.3247156761655783 0  1.959375 0.3126371951219512 0  1.749222215368287 0.1025 0  1.275777784631713 0.1025 0  2.2 0.1025 0  1.225938124459196 0.3075 0  1.550777784631713 0.1025 0  1.44375 0.07430640243902442 0  1.16875 0.07430640243902437 0  0.3528655045338512 0.2063263890916129 0  0.5890337614812103 0.08775733857679162 0  0.8504912436891263 0.190072835691683 0  1.899250267340833 0.2229966846119207 0  0.1020898364287272 0.3140258291809757 0  1.766482954545455 0.2934032012195123 0  1.051658316544432 0.2265720188842194 0  0.2 0.3400647632937836 0  1.421109702350723 0.2261157654379721 0  0.4812500000000001 0.41 0  0.4324401666997539 0.3216425986889796 0  0.098916018031319 0.09171660955420841 0  0.9508742791313441 0.2921736960864468 0  2.13125 0 0  2.118919042110979 0.3422084711244843 0  1.30625 0.41 0  0.20625 0 0  1.597888256393107 0.2173787389261347 0  0.4812500000000001 0 0  0.4324082967851086 0.08384041677422771 0  1.829299675393195 0.07400700849299596 0  0.568219932524165 0.3212274660843853 0  1.71875 0.41 0  0.268005226542646 0.08512186835670006 0  1.16875 0.41 0  2.038220665644273 0.332420740103091 0  0.6678017527842831 0.07701763866051195 0  0.89375 0.41 0  0.5111435174287687 0.07335351331957608 0  0.176193934632343 0.0734896648625108 0  0.07390688010811153 0.1697064032433452 0  0.05452951551825875 0.25625 0  0.61875 0.41 0  1.452769549894695 0.1548122580621249 0  1.369219062229598 0.07430640243902442 0  1.30625 0 0  1.720943423819132 0.1714577452753128 0  1.157188124459196 0.205 0  1.094219062229598 0.07430640243902437 0  1.304056576180868 0.1714577452753128 0  1.67579304192913 0.07430640243902437 0  0.2672907219039591 0.3037570723459566 0  1.209670467133757 0.1362100266964769 0  1.58125 0 0  1.03125 0 0  0.06875000000000001 0.41 0  0 0.35875 0  1.58125 0.41 0  1.631724228912893 0.3381867502687533 0  0.8240147050827157 0.1225233169495944 0  1.825608881788174 0.14499488549201 0  1.85625 0 0  1.44375 0 0  1.44375 0.41 0  1.85625 0.41 0  2.13125 0.41 0  0.7562500000000001 0.41 0  0.7562500000000001 0 0  0.89375 0 0  0.34375 0 0  0.34375 0.41 0  0.20625 0.41 0  0.06875000000000001 0 0  1.16875 0 0  1.03125 0.41 0  0.61875 0 0  1.71875 0 0  1.99375 0 0  1.99375 0.41 0  0.3972301426712326 0.2593842555611471 0  1.340625 0.3489494290853124 0  1.134375 0.3489494290853123 0  1.700180620188976 0.3438659752031281 0  0.5003922072260507 0.341765274319271 0  0.6212513815748759 0.2209216137134851 0  0.6885607720119526 0.215393731583638 0  1.033412357328477 0.1612902025713047 0  2.135782184673599 0.07126652247502523 0  1.668441847249787 0.2129203728327609 0  1.295782514339747 0.2378437748815763 0  1.409375 0.3520314716057996 0  2.129248544730567 0.1906135162504124 0  2.060771381434487 0.1989445750470348 0  2.013252586573865 0.1496169464686054 0  1.942766402200229 0.1734448904596831 0  1.895522487186454 0.06076163953489683 0  2.069553871656643 0.06605731020975725 0  0.9281250000000001 0.3539050257418612 0  1.274680914880868 0.3520219391081363 0  0.3030138498135347 0.2488370856812789 0  0.8223773249563684 0.341761430177996 0  0.9018164060227267 0.2326477848736739 0  0.8143027982392851 0.2440265179987191 0  0.7225087161029304 0.2699907246386231 0  1.614713220494657 0.09473434380863296 0  0.378125 0.3566194660323104 0  0.309375 0.3566194660323104 0  1.72990325744076 0.2380068107952482 0  0.6915936999299305 0.3429472631234433 0  0.6268087624932918 0.3466455500035671 0  1.356580098625191 0.2120393231351682 0  0.3060160055995138 0.1590148921620778 0  0.3954648733249218 0.156380553890791 0  2.034370752044885 0.2668681600792073 0  1.51768709249349 0.3426260931494756 0  1.561883724969884 0.1650446847858835 0  1.197344062229598 0.2523725417393646 0  0.9281250000000001 0.05124999999999999 0  1.804085235518364 0.3468178408964637 0  1.817887819205233 0.2589243285818559 0  0.9107805776841645 0.1653834539923287 0  1.905897727272727 0.3485060975609756 0  0 0.05125 0  0.844212276491354 0.0614201194265309 0  0.378125 0.05244637078450034 0  1.008571329007178 0.2705955969954818 0  0.7724048032149464 0.1559079561351474 0  0.7203054377831548 0.04941826955193545 0  1.192836486056382 0.3562350748565544 0  0.5967108020713719 0.1479294686523888 0  1.28257088594801 0.2944411014911587 0  0.7041890234548132 0.1222025174424443 0  1.474860187679412 0.2504218616229368 0  1.406767003493824 0.2829282258560709 0  0.3201325899091991 0.05890121548989159 0  0.5979220912872258 0.2727591995766724 0  1.845656689180403 0.1998310418452388 0  2.144958525570388 0.2909790873294231 0  2.2 0.15375 0  1.57794966442982 0.3540357145964566 0  0.9483181579620558 0.1214693369582054 0  0.0496154796471391 0.333125 0  1.508991196088596 0.1421783375065625 0  0.09776612425612034 0.2204896805326566 0  1.50436820029908 0.06143401634903343 0  1.223857000523521 0.0823554862453532 0  0.2531953886959507 0.3582003209055908 0  1.153316824384777 0.1289850171317837 0  2.148922302309752 0.1258841779285271 0  1.621993280276081 0.2841214267927899 0  1.550118654119087 0.2461998729100966 0  1.327182649291491 0.1216967252533594 0  1.753125 0.04556020050186112 0  1.271875 0.04556020050186116 0  0.9824282234771738 0.05051969257615314 0  1.039510847866381 0.05683351822678641 0  1.94956388244759 0.1180512551534177 0  1.949997712993411 0.04965831614304109 0  1.771961817615021 0.1530278789497521 0  1.909246823951428 0.2812757146784527 0  1.101974016627944 0.2038045618205013 0  0.7906250000000001 0.0444674049654372 0  1.948575539857022 0.2445328248721197 0  1.697271520964565 0.1233917627620729 0  1.065625 0.3689344961371042 0  1.085849084308977 0.3170853572226867 0  0.9840604787624379 0.3582077516409966 0  1.577403511714593 0.05463601888079143 0  0.05622663515370135 0.05493816910862376 0  0.8762396958822678 0.3392249777398821 0  1.751571320346033 0.3651102912045228 0  1.055327852410105 0.111864799513911 0  0.1583785085108421 0.2994699345738728 0  0.1455283439499995 0.3542795598723423 0  2.2 0.35875 0  0.225705107073232 0.05084786997482401 0  0.1455852234589313 0.1166494778469164 0  1.466879772203159 0.3611261772912453 0  1.990280163552011 0.3564754268533217 0  1.17471064520912 0.2990917256188288 0  0.7221925551074015 0.1739659241003985 0  0 0.25625 0  2.2 0.25625 0  2.2 0.05125 0  0 0.15375 0  1.853978576207987 0.35875 0  0.21965520498276 0.1015543880164422 0  1.515638456102889 0.2882700110184686 0  0.09048297387599738 0.3637717362208066 0  2.150453692751374 0.2387066338105111 0  1.323782677156475 0.04897634338873398 0  1.409375 0.03715320121951221 0  1.406484531114799 0.1087852750766809 0  1.134375 0.03715320121951218 0  1.627401732573545 0.04552157221025036 0  0.446875 0.3713289093361426 0  2.045405893604797 0.1105340662939892 0  1.255408269734577 0.1577307500159216 0  2.028125 0.03707597992059326 0  0.04420832937638274 0.128125 0  0.5817551710628505 0.3702615006034757 0  0.1197849154434487 0.2663398672460083 0  1.248258025468107 0.2565907092181813 0  0.1300647302703173 0.0508462728378621 0  0.7738123537510222 0.2761231499240648 0  1.203125 0.0366132337404304 0  0.5444207041612499 0.111205399508622 0  0.8016457771828226 0.1964238426015905 0  2.072662025974815 0.2975086504196739 0  0.4019040438866802 0.2103993403217561 0  0.4677372330974851 0.04827477407630658 0  0.8677218578847617 0.1432970430140788 0  1.058011122005847 0.2758866204059919 0  0.4429405887974043 0.2746184809910084 0  0.5843750000000001 0.03726989681835222 0  0.6318596133730142 0.1128692182767254 0  0.4862628454464408 0.2957029785303028 0  0.7805186758662764 0.3673578380827891 0  1.887722846421017 0.1760882698830035 0  0.3498893058880703 0.256189258793856 0  1.472640588990488 0.1118278026240017 0  1.865937103925594 0.2604137786483804 0
[...]
<PointData  Scalars="f_43"> 
<DataArray  type="Float64"  Name="f_43"  format="ascii">4.2503362991785748e-01  4.5497250958473390e-01  -1.5963068656244285e-09  -5.1956984528251556e-09  -3.5888693158630480e-01  -3.2341074264283959e-01  -3.4695793527175223e-01  -5.1454184338398912e-01  -9.3202997325304593e-01  8.6416180378756513e-01  1.9986193219030128e+00  4.0292458941855569e-01  -1.1552290820903766e+00  -5.0577994166728257e-01  -2.7738640459908659e-01  -2.5286423491854393e-01  -2.8780210730640876e-01  -4.5522612905481058e-01  -1.3110078307763159e-01  -1.0726283948605318e-01  -2.9067997868476131e-01  -1.3845614684484003e-01  -6.6318574140737524e-02  -5.2210507615069868e-01  -2.7764204516874651e-03  7.6687094545730095e-01  -2.0163743110401155e-02  -1.9922475664672432e-01  -1.9647492838443995e-01  1.8711441653944632e-03  2.3423967658348269e-02  6.0623163583784379e-03  1.7914198451253621e-02  4.1961320010194302e-03  3.1210908710330325e-02  1.8559220021398322e-02  1.8901764493733791e-02  -8.8783460243034643e-02  -8.3854508967007829e-02  9.2367769178111035e-03  7.9752924426674931e-03  1.7361208396264049e-02  1.0231005428436982e-02  1.4808520096949548e-09  -6.5966632354749047e-02  -3.5239371453776678e-03  1.7151329567527174e-02  -1.4925199063411654e-01  8.2334816498935443e-03  1.5479042897793077e-09  -1.4666053518032166e-01  2.0344336395808453e-02  7.6984938904223893e-04  2.1877315205028509e-02  1.1893624394446562e-02  1.0119149834991160e-02  -4.4714620890477501e-02  -3.6961423283723399e-02  -1.9099180179401509e-01  3.7167429941289820e-01  3.4983580452173185e-01  -1.7477203905818120e-01  1.2648217096325449e-02  1.7082743191574514e-02  -1.0860556401908403e-03  2.0669290111350394e-02  -1.2546280265354263e-02  1.0283802490947456e-02  2.9969750277393480e-02  -2.5366239328017270e-01  1.4841783352099746e-02  1.2936786107851629e-02  2.1634173916453767e-02  -2.8778200371306028e-02  -3.6080454312888019e-02  -2.9352725527228340e-01  5.2158407597776213e-01  5.5495423546312417e-01  -1.8566778990297958e-01  -9.5225418293402531e-02  -2.0625392169191015e-01  8.1436388356010050e-03  -2.2339279185184316e-02  1.9021045890382979e-02  2.6136572319508458e-02  -3.6816366598914334e-03  -1.4801003101100286e-02  -1.0587991041825734e-01  1.5972739305958668e-02  1.4627383325764291e-02  1.0299085883529751e-02  5.4021513981126746e-09  -4.8004093779291058e-03  2.2372969021131697e-02  1.2226906267567462e-02  1.6307343617615353e-02  -3.5247878441737290e-01  -2.1862329395518967e-01  6.8520306370771916e-03  1.3507501184135975e-02  4.6508904372205739e-01  2.2509198000509500e-02  6.2081093416678007e-03  1.5362336216543740e-01  2.2551716929107998e-02  -1.9774729009609301e-01  -2.1370303122819481e-01  4.9349965602058082e-01  -9.5885692653001290e-03  9.5578485603173124e-03  8.2782672488839540e-03  2.0373724442739060e-02  1.9932149506426175e-01  -7.3537309278739575e-03  -2.0476372610790730e-01  -2.1035384328398893e-01  7.9053565659240217e-03  -2.2083524034339047e-01  1.7043423915105139e-02  -1.4766536511902126e-01  -1.6709182321904315e-02  4.3983553722971441e-03  -1.6169530263098364e-01  -6.1971185839000340e-02  -2.1967812783016208e-01  2.1598465906795025e-01  8.9922988335735599e-01  7.2205431591394720e-01  -1.7642674444255332e-01  1.5107224546784290e-02  -6.8079124301308690e-04  5.0172658003995669e-03  1.4463632336670635e-02  7.5310797355685724e-04  -2.6030686607712203e-03  3.8646640269292595e-03  1.8860682639487217e-02  -1.8437750533804831e-01  1.9165500392414485e-02  2.0257005757586748e-02  -2.5693214154603052e-02  4.1286800610522728e-01  4.3720290347392382e-01  3.1009995238634149e-04  -1.7365918713808436e-03  -3.7455548182709263e-02  5.0157039917305933e-03  1.3251635588329485e-02  1.4097313261421851e-02  2.5681088960374195e-02  2.0316034813880727e-02  7.0558103122947708e-03  -1.1636170944176892e-01  -1.1525064256926999e-01  -6.0902994384661138e-02  -1.3569583399509189e-01  -1.0525466888560406e-01  1.9979777580321703e-01  4.4065262163562702e-01  1.2583901856264269e-02  -2.2622743974540404e-02  -1.7725213875177995e-01  1.5795080540476153e-02  1.9603875370333292e-02  1.2200448973594158e-02  -3.4040680621395975e-01  3.0086025094343480e-02  -2.0576418995853073e-02  1.5173602720959273e-02  -2.1111344906192148e-01  -2.3712399146321353e-01  -1.5216762847794740e-01  7.4241469076935084e-03  9.8181586550499453e-03  9.9591584408252054e-03  2.3103282356338187e-02  3.3225959241829563e-02  5.1116746911849149e-03  1.3513926707032261e-04  1.5179962547602840e-02  1.5606715087028319e-02  1.6045719596927334e-02  1.7422210606062572e-02  -4.5597300769059129e-02  9.9464117550406208e-03  -3.4993534749348709e-01  -8.1652354044219180e-02  2.0961017090829561e-02  -2.5750149504873549e-02  -1.1796907025638126e-01  1.9496499922621782e-02  -1.6550689797496612e-01  -8.2043643295570956e-02  2.0677053701209373e-02  -1.4276882085769924e-01  -1.7741680578849098e-01  1.3502575465757043e-02  -3.4939210992373859e-01  -3.6536446390455724e-01  2.8902226159529528e-05  8.6723363993098310e-03  1.5954923283163874e-02  -1.0426684201710246e-03  -5.0300664508268943e-02  2.0401665449140162e-02  2.2762527226511883e-02  7.4880456529845458e-04  2.0938894742943311e-02  4.6790529291710936e-01  -6.9311757052451295e-02  -1.8699357043681686e-01  3.1276525590945010e-03  -4.2410489951322371e-02  -1.2932642510071921e-01  -1.5499174889465487e-02  -2.5509548747093691e-01  1.5575746627068321e-02  -1.3354302605720983e-01  1.9426958912719505e-02  3.1821909671416189e-02  -1.3073136341777472e-01  -2.4416798511200843e-01  5.8813854266637254e-03  6.9851007737870919e-03  6.6519694204924790e-09  -3.3349157236052069e-03  -1.9515138959651755e-02  4.6060839849741925e-01  2.0823226092416044e-02  1.1190737332270513e+00  2.3092915711300375e-02  1.7784212626132695e-02  3.3456098949890947e-02  1.8683463225672509e-02  5.0517949635001573e-03  -2.7453730135216640e-03  -7.0363930759144277e-03  1.4685503410577627e-03  1.3411168388929201e-02  9.1496549913312412e-03  -3.9627448475959955e-02  -2.3368688662443043e-02  1.9382137138102211e-02  1.9869806255539683e-02  3.8125172143458359e-03  2.0637132160664533e-02  3.6738730482851084e-03  -9.5221410308022655e-02  8.7283675938446374e-03  2.0270412214763077e-02  -1.9123425903628817e-02  -1.4798125403810519e-02  -2.7703360412217055e-02  2.0526386886856204e-02  4.6107836066096097e-01  -6.0700630521765608e-02  2.0529488411714050e-02  -4.7988472937897722e-03  2.3290233398527768e-01  3.2422776831168032e-01  6.5838293152897667e-09  1.0102536532884594e-01  3.3939380781491757e-01  2.2334289422936866e-02  1.1706837792288895e-02  -1.3606960417281780e-02  -1.0410096346356533e-01  6.7272795436055877e-01  1.5479042897793077e-09  -2.8552024387853936e-09  6.9865477151599387e-01  1.9998753047299610e-02  -1.3813657361676623e-01  8.8944984139797401e-03  4.0422826647164484e-01  8.3647585191253815e-03  1.8331735725287453e-03  6.9593348669894639e-03  4.2508874191221572e-03  7.1919790112625372e-03  1.8038554897357229e-02  -1.9086888373732977e-01  1.6735591522561970e-02  1.3685895941578688e-02  1.8885128951763031e-02  6.4181567998375966e-01  -1.8931861418714077e-01  6.6855744599391109e-01  1.2665375615106250e-02  3.7723125890365677e-01  -7.4059652434553494e-02  1.5602036736121115e-02  -2.7567525403622972e-01  -1.6578964145368243e-02  3.2074412424064891e-03  -3.3232979178703714e-01  -2.0274519758066201e-01  -1.1375887668482397e-02  -5.8819390601387482e-03  -2.1488896340974212e-01  -1.9002173680497342e-01  -2.0938210820427944e-01  -2.2113438723774961e-01  -1.0354872539774604e-01  1.2492675506421209e-02  -3.5597018416065918e-01  1.7634244896924490e-02  2.2593925584776322e-02  -3.3182653373383217e-03  1.4166830062117455e-02  -1.2775100440955781e-01  3.4670207156378946e-02  -1.3111216837058023e-01  -1.7327626036356447e-01  -1.2319653222154241e-01  1.2801385878819665e-02  -2.2050307491285981e-01  -1.9637618376054469e-01  1.9383813305267568e-02  -2.8783121436528047e-01  -2.3863214190441387e-01  2.1882170177840901e-02  1.3673778469773126e-02  3.4098730087271179e-03  -5.3217995117292992e-02  9.2923098920007895e-03  -3.4384539171096112e-01  -3.5654514935966775e-01  2.0740012687483003e-02  -3.5875506683690084e-01  9.0651157049380293e-01  2.1839700495814861e-02  8.4201510054781470e-01  -1.0415864896227156e-03  2.9683046233036350e-03  -2.9198381157431112e-02  6.7511163491836322e-03  7.9364335610272174e-03  7.0166598931872748e-03  -1.4251819430095137e-02  1.8493733697025078e-02  1.3441819997437440e-03  -1.5636418870776575e-01  -2.8505927478305737e-01  8.3456397023441188e-03  -7.5441074134321232e-02  6.2810071120338188e-03  3.0427093322943029e-02  1.6205433807639901e-02  1.9025171925803518e-02  4.7648567888111254e-03  -2.0001133803055368e-01  -1.9589068494888068e-01  3.7635406683624896e-03  1.7183498273804353e-02  1.6739530629206734e-02  5.4768016962833486e-03  5.6442923173677089e-03  4.2253952159203295e-01  -3.0139187207827073e-01  -3.6391719792154491e-02  2.5095790965709765e-03  1.0275458498557795e-02  1.0807186609885260e-02  -7.5737685771578925e-02  2.1775787630062590e-02  1.7610349464359413e-02  -5.7202409719316422e-02  -8.0760430359731461e-03  2.0242999450786892e-02  2.1222301438135742e-02  2.9542851007314713e-01  7.3568833849055101e-03  -2.0453185166390334e-01  -2.0239225114793918e-01  -1.1078246920534919e-02  2.8484973257883001e-01  1.2300763481372845e-02  -2.1634866083616866e-02  -1.8623804428697509e-03  -2.4703685006693377e-01  -3.8378814228986861e-03  7.8458934462387088e-03  1.8031799343055866e-02  -6.1321043886760195e-03  -2.6455576271020842e-01  -1.6224186139660227e-01  1.2165441726228077e-02  1.0606656781553547e-02  -9.4321254987483720e-03  1.6743765105580340e-02  -1.6053144303063926e-03  -5.7011164809592110e-04  4.1664464024239717e-01  2.5520328924743565e-02  -1.4910477976824668e-01  -2.0633279478973984e-01  -1.2701011903389278e-01  1.9690697284956329e-02  -3.3589165275291227e-01  2.0242929320185423e-02  -7.1204351085957143e-02  1.2231474828852625e-02  1.6181050078425858e-02  1.9192432939217519e-02  -3.8661346588910642e-02  2.2497704438979770e-02  1.8529958464614998e-02  1.7573233621879115e-02  2.0819475026724699e-02  4.5229693372162794e-01  4.2538602371895917e-01  7.7998295336867158e-03  7.5932807248840928e-03  -7.7546431487587025e-02  -7.3323837684237059e-02  -7.8071883597384210e-03  5.8965007073478086e-03  5.5742945581578063e-01  -2.4136763077874826e-01  6.9342410731101845e-01  -1.7501402377662428e-01  1.0324482022245269e-02  -8.6792973370336340e-02  -2.8549439873068096e-02  -2.5716549740905448e-01  1.6781583775521663e-02  7.6288265214781892e-01  -1.8562604883267531e-01  1.8330506767780353e-02  2.7672558404567643e-02  2.5509123818648316e-01  4.9996365969699214e-03  5.9786804141197580e-01  2.2574364268273410e-02  -1.2501948500206930e-01  1.3612193119555574e-02  1.3648838745183229e-02  1.4234829067915627e-02  5.2791885671490723e-03  3.3277663187596845e-04  1.5972289853983593e-03  4.6026637230912933e-03  1.8608223830633906e-02  -1.9798363384943250e-03  -1.9736959665270437e-01  1.7623168944518465e-02  -2.0780531318106804e-01  -1.6469293360720030e-01  1.9065669972031962e-02  1.4949138891401752e-02  5.2923426959339659e-01  -6.7236231278372501e-03  5.6483234882827261e-03  2.3349954993338687e-01  4.3584041604057250e-01  -2.8130340771125074e-02  4.9827065762561135e-01  1.0443776003770154e-03  -5.8718490137889399e-02  6.1410274407044463e-03  -2.0406966820195893e-01  6.3060489855666941e-03  1.1674160706721800e-02  -1.7772403326503486e-01  -6.0446838972251657e-02  1.3368293573258895e-03  -7.2494960756295706e-03  3.3267579947830555e-03  6.1997065303623722e-03  -4.6280520390582780e-02  8.7208625221422698e-03  2.7677709821363325e-03  2.2252296260827496e-02  2.3167021685123707e-02  -3.4230445614641036e-01  4.3264467014802934e-03  -1.9218683243287325e-02  4.7156636777871902e-03  1.1704877562266434e-02  7.7829453787857106e-03  7.8600002475582610e-03  1.5457687174657878e-03  9.6113512639541994e-03  4.2818121691874146e-04  -3.1052322403050713e-03  -2.0365955198960795e-01  -1.9796395202384315e-01  9.7445981518465799e-02  -8.4234057997213396e-02  -1.1341641855900281e-01  -2.0027897400260197e-01  -1.7580163738771717e-01  1.3633888674401999e+00  -3.1882045936049937e-02  1.5690347479528918e-01  -1.8909782213466099e-02  -1.9392505324328346e-02  2.1190333503538383e-02  2.7717247467968900e-02  3.2756968442680133e-02  -1.7816694498080873e-02  8.8709670677342509e-03  6.9743540592826841e-03  -1.0236513949124211e-02  -3.2360865903120278e-01  -2.0130892556534097e-01  8.1369804094400516e-03  -3.3926727916927180e-01  -2.6573375675081001e-01  1.3365516732464404e-02  -2.9510325840712687e-01  -3.5332934869299210e-01  3.4050257696676300e-02  1.2077956897472444e-02  8.6430982045110610e-03  3.0305153579323883e-03  1.0174608446275829e-02  9.7804546114176865e-03  -2.2468985224475846e-01  -2.0084930627377911e-02  -1.0774699459303247e-02  -8.0744031507400896e-03  1.3438153369828496e-02  2.9906809797614919e-03  4.5586073549642907e-03  1.4010560158301185e-02  8.3275070007795965e-03  1.8410705930993757e-02  1.9788511725329399e-02  -2.0317520563839057e-02  1.3658545542604606e-02  -1.3203168502952042e-01  -5.2407590597416308e-02  -4.8572924762138814e-02  3.0209664025170054e-02  6.5605469456040391e-03  4.4134122009869513e-03  -1.4150523147916292e-02  -1.8977506280255291e-01  -1.6987303943578214e-01  -1.4639118110391636e-01  3.8986788432642050e-01  1.1112686387352795e-01  -1.0227250112425865e-01  -1.9127472547592739e-01  -1.8893068379854663e-01  -9.8886582729022982e-02  -5.1955054503695329e-02  -1.1584221638432118e-01  -1.5825140743733268e-01  -1.6222479363004366e-01  1.4281456350375286e-02  1.8772204164612401e-02  1.9767432576226620e-02  8.8106983030398402e-03  1.8834671718703715e-02  1.6062006273402523e-02  -3.5903104114621776e-02  1.7359855874043185e-02  -1.5348767404871899e-01  1.7859554209338137e-02  2.6152463414548386e-02  1.6354772187856637e-02  1.5375541307723806e-02  1.1567345187771135e-02  2.1126614429154457e-02  -9.1382509195355621e-02  -5.9457246239965275e-02  -3.1909861299712144e-01  -3.3731554210924114e-01  -1.5279171986786785e-01  -4.8832164120199391e-03  2.7755335593270699e-02  2.5439132327599479e-02  1.8350011114548613e-02  3.9202388757199225e-01  -1.8989258291079999e-02  3.0752058297782788e-03  1.6789993952689465e-02  -1.0483245393011212e-01  1.7298059917363048e-02  2.8802790801835598e-01  2.9401235843594921e-02  2.9225149796161032e-02  1.7945996881867116e-02  2.2027021703989739e-02  9.4063271538017065e-03  -1.3870088272066644e-01  1.5614943227963233e-02  -6.7888576159035305e-02  6.7903546102367771e-03  1.1496767300237127e-02  1.3565851232656110e-02  -1.6294487395644122e-01  2.0556401476479275e-02  1.4517415707321008e-02  7.3708805892150553e-01  -1.9205616750552831e-01  1.6897977918121330e-03  1.9306207713278751e-02  -2.6876304573244397e-01  -6.7607624615080991e-02  1.7464584601180978e-02  1.5690942737749031e-02  -1.3439956481319361e-03  8.0085752384711795e-01  -9.4612774956161336e-04  9.4063637418601992e-03  1.2808923986093811e-02  1.6734027274544712e-02  3.6814592170222155e-01  5.5581280099887588e-03  3.2843435584059077e-01  -3.8711871679127124e-02  2.3941078109941858e-03  -3.5381246358165325e-01  -3.6256746118217642e-01  2.0148505153209713e-02  -3.5433131752635544e-01  -4.1849938962376605e-02  2.0230662810553447e-02  1.3922173774617786e-02  1.6017394846581594e-02  1.9966300253477027e-02  -1.5725022801743618e-02  5.1533959054012087e-03  -6.0577887289836431e-03  -4.0576698438039183e-02  2.1222780148073724e-02  -1.9687800435409855e-01  2.0648944116973239e-02  1.8566998359720761e-02  1.9884853450595270e-02  -8.2413510892839034e-02  -1.2741229007677654e-01  -1.0278968322830138e-01  -8.3584887590939197e-02  5.0599821014954364e-03  7.0008445365794326e-04  -2.6253652303166575e-01  -1.7062077633485545e-01  -1.9607180964677937e-01  -1.0921226597595277e-03  5.8157237382259686e-01  1.3404049286755346e-02  -5.0395680427339643e-03  -1.0871925718378991e-01  -2.8681977347439890e-04  -2.3549462847894953e-01  2.0222458583924404e-02  -3.4696959934416083e-01  1.4426332826267376e-02  -1.5061424194393055e-01  -1.7968305882849639e-01  -2.0903174885081408e-01  1.8983729480310005e-02  1.7456226530868490e-02  2.1178413622079079e-02  1.3993770408358744e-02  -1.3725749254745293e-02  -9.7378775625191913e-02  1.1226447941917834e+00  2.2163820870741705e-02  -2.2577679586109112e-02  -3.1947850746295331e-01  1.4859401509655290e-02  1.9443026032857022e-03  1.1199659020794598e-02  1.9202034832057291e-02  2.2796778909586871e-02  2.3136907404381398e-02  4.6740983510807268e-03  2.1276296249059391e-02  1.4381529701002449e-02  -4.8418959726499150e-02  -5.7613454229667821e-02  4.5537335229182541e-01  4.5363295771109718e-01  2.0838539646604020e-02  -2.7506444656102602e-01  1.5644054960013466e-02  -5.8735330978771435e-04  7.3354805777962502e-03  -7.7097442646027973e-03  1.6415725221270393e-02  6.5072282900230736e-03  6.0261813513478557e-01  -4.0878070755691102e-02  4.1512888971497239e-04  7.0564889001316133e-02  2.4424596951193939e-01  -1.2192368440273607e-01  1.8827171467175524e-02  2.9022056392169669e-02  -2.5091912921765375e-01  -2.3446916448458052e-01  -3.4921440982907054e-01  1.3020106396193115e-02  2.0011990194190549e-02  -2.6685128472868158e-01  4.3803597522235982e-01  7.5061344470918701e-01  1.5048244359552073e-02  -1.4716874343107089e-01  1.0069032168019411e-02  6.3732271057895598e-03  2.1775929754727662e-02  2.2941783377227250e-02  1.4808520096949548e-09  -2.1001027578399392e-01  4.4563383528907858e-03  4.5951221138487769e-03  -2.1611469687254392e-01  -2.0383302572362194e-01  3.5834223392191273e-03  -1.4227680715234034e-01  3.8946517973953182e-01  3.7435885039967770e-01  2.0094443602747866e-02  1.6914722148310805e-02  2.2013063837583682e-02  2.1117867970054580e-02  1.2136356404382834e-02  1.2886907760248291e-02  2.0964296566599983e-02  -1.8171948530191068e-01  3.2045422799868009e-02  3.1060506705574396e-02  -1.1122712461111904e-02  -1.6241964161758774e-02  -8.0157397930521790e-02  -2.2392904886302514e-01  9.9162761110397641e-03  -1.2810583850451979e-01  4.2693748336922299e-02  5.4021513981126746e-09  7.1602413242895287e-03  1.9825989744613796e-02  1.2255060929559736e-02  -1.5186119137758666e-01  1.6023265486305206e-02  -8.9120406946957738e-04  -1.8151093706894168e-02  -9.9184028723845064e-03  -1.7861573858243891e-02  -2.6958092909507490e-02  1.0518193604808270e-02  -1.9623618653592016e-02  -1.2676961295596520e-02  -3.1690512044507603e-02  1.9144746230343512e-02  -1.6123684921750740e-03  -2.8643768489216254e-02  3.9294348737542439e-01  -2.0570955516425262e-02  2.0244815044754207e-02  -5.9470524723460455e-02  8.2051636956459086e-03  8.6581188583298545e-03  4.8833218181191492e-03  -2.0710599399139276e-01  1.5389074696943386e-02  1.1167899675024405e-02  -5.1442343629380756e-03  -2.3077770196764527e-01  5.2451558654571804e-03  1.4792312528575661e-02  1.2140651391345044e-02  -1.9278386075447573e-01  -2.0500509799437769e-01  2.0847181493426219e-02  -2.1498927273378801e-01  -2.4629071563398136e-01  -2.4209367377356664e-01  1.9614408581881265e-02  1.7174209934776079e-02  3.5882614279586292e-03  -4.2412412378353659e-01  -1.0354549193267101e-02  -1.3829045644712876e-01  7.4397348651831065e-03  3.1997258645077997e-01  -2.8701337703069599e-02  6.9026952913807281e-03  -1.1379355627120022e-01  1.4808520096949548e-09  1.0772825387884051e+00  8.7802668653022353e-01  -2.0555186050892838e-02  -5.0806977587608035e-02  -1.4011790522619530e-01  -5.0650118653500498e-03  -3.3635961408728762e-03  -1.2712826515031661e-01  1.7807747655662912e-02  -1.8421835062029920e-01  5.2226967249619760e-01  4.6778051363300960e-01  4.7232477924541871e-01  1.8258033154300857e-02  6.3595171133024996e-03  -1.0567702227221641e-03  -4.4661323427633388e-03  -1.0319511613027707e-02  3.1657288551598661e-02  5.2767849190243776e-01  1.8596553637570356e-02  -3.7714710912581512e-01  1.4452784184575030e-02  3.3127690724638354e-03  2.0972803240261025e-02  1.8674028291792072e-02  1.8987649086986014e-02  -1.9662747034156175e-01  1.975920