<?xml version="1.0"?>
<VTKFile type="UnstructuredGrid"  version="0.1"  >
<UnstructuredGrid>
<Piece  NumberOfPoints="2426" NumberOfCells="4534">
<Points>
<DataArray  type="Float64"  NumberOfComponents="3"  format="ascii">0 0.41 0  0 0 0  2.2 0 0  2.2 0.41 0  0.2404508497187474 0.2293892626146237 0  0.25 0.2 0  0.2404508497187474 0.1706107373853764 0  0.2154508497187474 0.1524471741852423 0  0.1845491502812526 0.1524471741852423 0  0.1595491502812526 0.1706107373853764 0  0.15 0.2 0  0.1595491502812526 0.2293892626146237 0  0.1845491502812527 0.2475528258147577 0  0.2154508497187474 0.2475528258147577 0  0.5404508497187474 0.2293892626146237 0  0.55 0.2 0  0.5404508497187474 0.1706107373853764 0  0.5154508497187473 0.1524471741852423 0  0.4845491502812526 0.1524471741852423 0  0.4595491502812526 0.1706107373853764 0  0.45 0.2 0  0.4595491502812526 0.2293892626146237 0  0.4845491502812526 0.2475528258147577 0  0.5154508497187473 0.2475528258147577 0  1.1 0 0  0 0.205 0  1.1 0.41 0  0.55 0 0  0.55 0.41 0  0.275 0 0  0.275 0.41 0  1.65 0.41 0  1.65 0 0  1.375 0 0  1.375 0.41 0  1.925 0 0  1.925 0.41 0  0.8250000000000001 0.41 0  0.8250000000000001 0 0  1.5125 0.205 0  1.7875 0.205 0  0.9625000000000001 0.205 0  1.2375 0.205 0  2.2 0.205 0  0.7560964076246335 0.2151713709677419 0  1.99375 0.2152743902439024 0  2.0625 0 0  0.6875 0 0  2.0625 0.41 0  2.2 0.3075 0  0.6875 0.41 0  1.7875 0.41 0  1.375 0.1486128048780488 0  1.5125 0 0  1.7875 0 0  1.5125 0.41 0  0.9625000000000001 0 0  0.9625000000000001 0.41 0  0.4125 0 0  0.1375 0 0  0.1375 0.41 0  0.4125 0.41 0  1.2375 0 0  1.1 0.1486128048780487 0  1.2375 0.41 0  1.65 0.1486128048780487 0  1.126715909090909 0.2793064024390244 0  1.676715909090909 0.2793064024390244 0  1.348284090909091 0.2793064024390244 0  0.34375 0.3032389320646208 0  1.894702181800738 0.1282910975492754 0  2.092797818199262 0.1282910975492754 0  1.85625 0.3075 0  0.8630851210521902 0.286932093388664 0  0.89375 0.1025 0  0.35 0.1090282786671641 0  0 0.3075 0  0 0.1025 0  0.6526217841291382 0.288229645480046 0  0.7562500000000001 0.09660248895515888 0  0.6568633732316684 0.1557582854763441 0  2.099172119769978 0.25625 0  1.002356446954348 0.1010393851523063 0  1.99375 0.08395950269330846 0  1.459960956013612 0.3075 0  1.569025960719943 0.2986889805672169 0  1.03125 0.3278689922742084 0  0.75625 0.3247156761655783 0  1.959375 0.3126371951219512 0  1.749222215368287 0.1025 0  1.275777784631713 0.1025 0  2.2 0.1025 0  1.225938124459196 0.3075 0  1.550777784631713 0.1025 0  1.44375 0.07430640243902442 0  1.16875 0.07430640243902437 0  0.3528655045338512 0.2063263890916129 0  0.5890337614812103 0.08775733857679162 0  0.8504912436891263 0.190072835691683 0  1.899250267340833 0.2229966846119207 0  0.1020898364287272 0.3140258291809757 0  1.766482954545455 0.2934032012195123 0  1.051658316544432 0.2265720188842194 0  0.2 0.3400647632937836 0  1.421109702350723 0.2261157654379721 0  0.4812500000000001 0.41 0  0.4324401666997539 0.3216425986889796 0  0.098916018031319 0.09171660955420841 0  0.9508742791313441 0.2921736960864468 0  2.13125 0 0  2.118919042110979 0.3422084711244843 0  1.30625 0.41 0  0.20625 0 0  1.597888256393107 0.2173787389261347 0  0.4812500000000001 0 0  0.4324082967851086 0.08384041677422771 0  1.829299675393195 0.07400700849299596 0  0.568219932524165 0.3212274660843853 0  1.71875 0.41 0  0.268005226542646 0.08512186835670006 0  1.16875 0.41 0  2.038220665644273 0.332420740103091 0  0.6678017527842831 0.07701763866051195 0  0.89375 0.41 0  0.5111435174287687 0.07335351331957608 0  0.176193934632343 0.0734896648625108 0  0.07390688010811153 0.1697064032433452 0  0.05452951551825875 0.25625 0  0.61875 0.41 0  1.452769549894695 0.1548122580621249 0  1.369219062229598 0.07430640243902442 0  1.30625 0 0  1.720943423819132 0.1714577452753128 0  1.157188124459196 0.205 0  1.094219062229598 0.07430640243902437 0  1.304056576180868 0.1714577452753128 0  1.67579304192913 0.07430640243902437 0  0.2672907219039591 0.3037570723459566 0  1.209670467133757 0.1362100266964769 0  1.58125 0 0  1.03125 0 0  0.06875000000000001 0.41 0  0 0.35875 0  1.58125 0.41 0  1.631724228912893 0.3381867502687533 0  0.8240147050827157 0.1225233169495944 0  1.825608881788174 0.14499488549201 0  1.85625 0 0  1.44375 0 0  1.44375 0.41 0  1.85625 0.41 0  2.13125 0.41 0  0.7562500000000001 0.41 0  0.7562500000000001 0 0  0.89375 0 0  0.34375 0 0  0.34375 0.41 0  0.20625 0.41 0  0.06875000000000001 0 0  1.16875 0 0  1.03125 0.41 0  0.61875 0 0  1.71875 0 0  1.99375 0 0  1.99375 0.41 0  0.3972301426712326 0.2593842555611471 0  1.340625 0.3489494290853124 0  1.134375 0.3489494290853123 0  1.700180620188976 0.3438659752031281 0  0.5003922072260507 0.341765274319271 0  0.6212513815748759 0.2209216137134851 0  0.6885607720119526 0.215393731583638 0  1.033412357328477 0.1612902025713047 0  2.135782184673599 0.07126652247502523 0  1.668441847249787 0.2129203728327609 0  1.295782514339747 0.2378437748815763 0  1.409375 0.3520314716057996 0  2.129248544730567 0.1906135162504124 0  2.060771381434487 0.1989445750470348 0  2.013252586573865 0.1496169464686054 0  1.942766402200229 0.1734448904596831 0  1.895522487186454 0.06076163953489683 0  2.069553871656643 0.06605731020975725 0  0.9281250000000001 0.3539050257418612 0  1.274680914880868 0.3520219391081363 0  0.3030138498135347 0.2488370856812789 0  0.8223773249563684 0.341761430177996 0  0.9018164060227267 0.2326477848736739 0  0.8143027982392851 0.2440265179987191 0  0.7225087161029304 0.2699907246386231 0  1.614713220494657 0.09473434380863296 0  0.378125 0.3566194660323104 0  0.309375 0.3566194660323104 0  1.72990325744076 0.2380068107952482 0  0.6915936999299305 0.3429472631234433 0  0.6268087624932918 0.3466455500035671 0  1.356580098625191 0.2120393231351682 0  0.3060160055995138 0.1590148921620778 0  0.3954648733249218 0.156380553890791 0  2.034370752044885 0.2668681600792073 0  1.51768709249349 0.3426260931494756 0  1.561883724969884 0.1650446847858835 0  1.197344062229598 0.2523725417393646 0  0.9281250000000001 0.05124999999999999 0  1.804085235518364 0.3468178408964637 0  1.817887819205233 0.2589243285818559 0  0.9107805776841645 0.1653834539923287 0  1.905897727272727 0.3485060975609756 0  0 0.05125 0  0.844212276491354 0.0614201194265309 0  0.378125 0.05244637078450034 0  1.008571329007178 0.2705955969954818 0  0.7724048032149464 0.1559079561351474 0  0.7203054377831548 0.04941826955193545 0  1.192836486056382 0.3562350748565544 0  0.5967108020713719 0.1479294686523888 0  1.28257088594801 0.2944411014911587 0  0.7041890234548132 0.1222025174424443 0  1.474860187679412 0.2504218616229368 0  1.406767003493824 0.2829282258560709 0  0.3201325899091991 0.05890121548989159 0  0.5979220912872258 0.2727591995766724 0  1.845656689180403 0.1998310418452388 0  2.144958525570388 0.2909790873294231 0  2.2 0.15375 0  1.57794966442982 0.3540357145964566 0  0.9483181579620558 0.1214693369582054 0  0.0496154796471391 0.333125 0  1.508991196088596 0.1421783375065625 0  0.09776612425612034 0.2204896805326566 0  1.50436820029908 0.06143401634903343 0  1.223857000523521 0.0823554862453532 0  0.2531953886959507 0.3582003209055908 0  1.153316824384777 0.1289850171317837 0  2.148922302309752 0.1258841779285271 0  1.621993280276081 0.2841214267927899 0  1.550118654119087 0.2461998729100966 0  1.327182649291491 0.1216967252533594 0  1.753125 0.04556020050186112 0  1.271875 0.04556020050186116 0  0.9824282234771738 0.05051969257615314 0  1.039510847866381 0.05683351822678641 0  1.94956388244759 0.1180512551534177 0  1.949997712993411 0.04965831614304109 0  1.771961817615021 0.1530278789497521 0  1.909246823951428 0.2812757146784527 0  1.101974016627944 0.2038045618205013 0  0.7906250000000001 0.0444674049654372 0  1.948575539857022 0.2445328248721197 0  1.697271520964565 0.1233917627620729 0  1.065625 0.3689344961371042 0  1.085849084308977 0.3170853572226867 0  0.9840604787624379 0.3582077516409966 0  1.577403511714593 0.05463601888079143 0  0.05622663515370135 0.05493816910862376 0  0.8762396958822678 0.3392249777398821 0  1.751571320346033 0.3651102912045228 0  1.055327852410105 0.111864799513911 0  0.1583785085108421 0.2994699345738728 0  0.1455283439499995 0.3542795598723423 0  2.2 0.35875 0  0.225705107073232 0.05084786997482401 0  0.1455852234589313 0.1166494778469164 0  1.466879772203159 0.3611261772912453 0  1.990280163552011 0.3564754268533217 0  1.17471064520912 0.2990917256188288 0  0.7221925551074015 0.1739659241003985 0  0 0.25625 0  2.2 0.25625 0  2.2 0.05125 0  0 0.15375 0  1.853978576207987 0.35875 0  0.21965520498276 0.1015543880164422 0  1.515638456102889 0.2882700110184686 0  0.09048297387599738 0.3637717362208066 0  2.150453692751374 0.2387066338105111 0  1.323782677156475 0.04897634338873398 0  1.409375 0.03715320121951221 0  1.406484531114799 0.1087852750766809 0  1.134375 0.03715320121951218 0  1.627401732573545 0.04552157221025036 0  0.446875 0.3713289093361426 0  2.045405893604797 0.1105340662939892 0  1.255408269734577 0.1577307500159216 0  2.028125 0.03707597992059326 0  0.04420832937638274 0.128125 0  0.5817551710628505 0.3702615006034757 0  0.1197849154434487 0.2663398672460083 0  1.248258025468107 0.2565907092181813 0  0.1300647302703173 0.0508462728378621 0  0.7738123537510222 0.2761231499240648 0  1.203125 0.0366132337404304 0  0.5444207041612499 0.111205399508622 0  0.8016457771828226 0.1964238426015905 0  2.072662025974815 0.2975086504196739 0  0.4019040438866802 0.2103993403217561 0  0.4677372330974851 0.04827477407630658 0  0.8677218578847617 0.1432970430140788 0  1.058011122005847 0.2758866204059919 0  0.4429405887974043 0.2746184809910084 0  0.5843750000000001 0.03726989681835222 0  0.6318596133730142 0.1128692182767254 0  0.4862628454464408 0.2957029785303028 0  0.7805186758662764 0.3673578380827891 0  1.887722846421017 0.1760882698830035 0  0.3498893058880703 0.256189258793856 0  1.472640588990488 0.1118278026240017 0  1.865937103925594 0.2604137786483804 0
[...]
<PointData  Scalars="f_43"> 
<DataArray  type="Float64"  Name="f_43"  format="ascii">1.6249620934786571e+00  1.6168411833399206e+00  6.3453340008423897e-10  1.0858535120052414e-09  9.1125809827699822e-01  1.4560558002115285e+00  8.8807044552394887e-01  8.5751000374550759e-02  9.9376248089777464e-02  1.7701829400425642e+00  2.5241175819070443e+00  1.4415168666320137e+00  1.8064744618734371e-01  -2.4974240780412989e-03  4.9545150954934375e-01  9.6983705076689875e-01  2.9842940472094581e-01  -4.4383000555505969e-01  -1.9907590782601942e-01  1.3115873424769582e+00  1.8938888889210579e+00  1.2182673552815209e+00  -3.7610259025436499e-01  -5.0776802729467529e-01  5.5877489414274428e-01  1.7779902457022971e+00  5.9208249873217200e-01  8.2953862904679210e-01  8.4891237011553766e-01  1.2442384564079749e+00  1.2536490781700429e+00  2.6608086888767984e-01  2.9516740800381286e-01  4.6093677101796193e-01  4.6465653454092282e-01  1.6009484720406986e-01  1.5154053687155147e-01  7.6394835608369571e-01  7.8231662772318988e-01  3.7342630846088765e-01  2.2481458346456876e-01  6.7163588903530280e-01  5.2168104194755960e-01  3.7306529630476821e-09  7.9174142191945696e-01  1.1315986595799853e-01  9.4474295081256696e-02  8.0754246874047730e-01  3.6525813461083627e-02  1.4109285100967954e-09  7.8759566682481019e-01  2.0051443349705286e-01  4.4714362304445232e-01  3.6542456483337210e-01  2.0406914123615050e-01  3.2530721972221183e-01  6.9396935389233860e-01  6.7813191713821264e-01  1.0401775562215472e+00  1.5230404860078037e+00  1.5287693989925260e+00  1.0963820146143277e+00  5.3035906878325789e-01  5.9679469384662576e-01  5.3193451499828315e-01  2.9878510113269424e-01  5.8199029340467945e-01  2.8445742151598852e-01  4.6216491852226282e-01  1.2683451224208770e+00  1.6750071597795246e-01  6.0287738062432490e-02  1.8715607946128887e-01  7.2518955742564106e-01  7.0913845649284535e-01  1.2912471649290829e+00  1.4563920796240759e+00  1.4899151560636283e+00  8.3880112923494110e-01  7.8240159593358816e-01  8.6464962318353333e-01  5.6021298100814590e-02  6.4942495936505173e-01  1.1396699440437248e-01  4.0250287848639221e-01  3.4334562491642173e-01  6.3430772214421982e-01  7.8046240175687454e-01  1.3043099630700070e-01  2.4569626893163357e-01  5.0024039549608890e-01  -1.8669709486280177e-09  5.2740891136806112e-01  3.5242189330684331e-01  4.0958169203092476e-01  5.6013089466203392e-01  1.4296907512823878e+00  7.9242906880270858e-01  7.3414378216748755e-01  1.6425958190434192e-01  1.5844331466000088e+00  2.3593349912084044e-01  6.2300960175290798e-01  1.2988942742891796e+00  4.2279317176844528e-01  9.3817989617261499e-01  1.0504835674514534e+00  1.6066224360527901e+00  6.7749745684460783e-01  4.2141656333292442e-02  4.7867845953941293e-02  5.1505198860545998e-01  1.3346158176644369e+00  3.2720924239833366e-01  8.9385302977133640e-01  1.0505259456890979e+00  2.0346093212133382e-01  7.9176575265208282e-01  2.7252126065824733e-01  1.2164740722112135e+00  5.7629371078605462e-01  8.9439366946957088e-02  8.1117212256454596e-01  7.2578754016296954e-01  7.7028507769198395e-01  1.3299582677067738e+00  1.8890611352345967e+00  1.7368471534869336e+00  8.0159337406431164e-01  4.0538987161739459e-01  4.5048814207181098e-01  4.9097085835458953e-01  2.6065233006403737e-01  5.6547569728421188e-01  5.9990073678300382e-01  4.8547059400234055e-01  2.8397072670477708e-01  1.2136491818637085e+00  5.3694287401305241e-01  3.0770386749988637e-01  6.4054706599796196e-01  1.6799149449897497e+00  1.4205323490830830e+00  3.4496883952021778e-01  3.0818826798211180e-01  7.4791749285352682e-01  2.0464462928377933e-01  1.8957478167822706e-01  4.2970308456832873e-01  4.0969659415157184e-01  2.0984087009300731e-01  2.4805089002260628e-02  7.8420039615630421e-01  7.9754231629567851e-01  7.0888617143736465e-01  1.1704276044670889e+00  1.1730186063379699e+00  1.3301583966128632e+00  1.6883742916927091e+00  5.4353681829060452e-01  6.4330678914184758e-01  7.5092372662074258e-01  2.7598320173773827e-01  1.0537173617379345e-01  1.3619588550173042e-01  1.3358842895442105e+00  4.6525414405282628e-01  5.7777345746748465e-01  2.7193686774894305e-01  8.3980269482312653e-01  9.2922092344492091e-01  8.4755986465367661e-01  6.3290781851180811e-01  3.7529205985928550e-02  2.8897253639898307e-01  4.9018034925059645e-01  4.2839245070621285e-01  3.9500598003902002e-02  7.7012674662913838e-02  1.0314625736924002e-01  1.4108128945404147e-01  1.6661608500990030e-01  7.4645837661964531e-02  6.9062601351816721e-01  4.9951130934782179e-01  1.3828821354157530e+00  7.4427025974561412e-01  7.0490462442375557e-01  7.5436992969137973e-01  8.0899759936727111e-01  3.1783095092366676e-01  1.1589287564164146e+00  1.2336641800218902e+00  2.5579707430245591e-01  8.0620831306988061e-01  8.1850845105507053e-01  4.5739558320755053e-01  1.3932368758214611e+00  1.4082844109308574e+00  9.0953344262041783e-02  3.7064920687258274e-01  3.4656102775489461e-01  5.4339120212739966e-01  6.8926260718243038e-01  2.1461564161386940e-01  2.0816698272225845e-01  7.0019901636521042e-01  1.6019083917190374e-01  1.4558551505852724e+00  7.3685399007848884e-01  1.1669983101394572e+00  6.4641857618884624e-01  7.7968135962520546e-01  7.9016428352396606e-01  5.4327264330948488e-01  9.0507289760673704e-01  4.9719975704093028e-01  8.1528495629479070e-01  3.9404072647110394e-01  4.3095146332460554e-01  1.2392697751980524e+00  8.6199320694638892e-01  1.9344863114297214e-01  3.1312424386796489e-02  -1.5325981630123200e-09  3.3914396327329005e-01  6.7913049356213739e-01  1.5574692118167184e+00  3.7501690173453883e-01  2.0098768249952257e+00  3.7685518171335280e-01  5.2903635784114755e-01  1.2551413642202536e+00  5.6789198560973964e-01  2.9180991267513622e-02  3.1416462472612716e-01  3.5327787925190107e-01  4.7249949767230343e-01  2.4792563381409372e-01  5.0015255279906878e-01  6.5657051950380163e-01  6.2843966811694563e-01  1.3780652173682989e-01  1.3638244496719895e-01  2.3334117134917057e-01  1.5834785717483524e-01  5.9559951022454816e-01  7.5926470129973733e-01  1.3733087640169198e-01  2.7326291735598612e-01  6.1974549669883083e-01  6.0459991840437521e-01  6.5924995302512290e-01  3.3752697223367217e-01  1.6245951480065544e+00  7.1784569547717791e-01  2.4402620552895585e-01  6.2094960379741915e-01  1.3348637307285178e+00  1.4772345352623526e+00  -6.6781562633134451e-09  1.2717187923076247e+00  1.4072246378497915e+00  3.9884057133988660e-01  1.1120821151307911e-01  5.5543877865264879e-01  8.1488583271780168e-01  1.6613605398744407e+00  1.4109285100967954e-09  2.3576336372454343e-09  1.6736111183729425e+00  1.8805761418978825e-01  1.0658194339226728e+00  3.7230647471457123e-01  1.6077707363144740e+00  2.7712764273053279e-02  4.7566471818058181e-01  4.3319797238662200e-01  4.3009857823415293e-01  5.7804041836453957e-01  3.1123108653966547e-01  1.0001954702504892e+00  8.6288337780780322e-02  5.1187139852218733e-01  9.8056143492058864e-02  1.6496686261267453e+00  8.2606634549384705e-01  1.6680368718857603e+00  5.1574527113643187e-01  1.5278885527226993e+00  7.7652874298770880e-01  5.3880599233000692e-01  6.4767405419817436e-01  7.6306697675680146e-01  7.0572066265723252e-02  1.5276795031670416e+00  9.3667505047983235e-01  7.2406028661224275e-01  6.1958553306935449e-01  1.0593836400760939e+00  8.1112280937588932e-01  8.3631355257684159e-01  6.9633862682601111e-01  7.6528057462513910e-01  1.7087838195248151e-01  1.3629128418514826e+00  3.9435727828413175e-01  1.8210225712568776e-01  6.5728718928441254e-01  3.9963543913521687e-01  1.0822928806024930e+00  4.4698810887090185e-01  7.7701893294765612e-01  8.0785625834436425e-01  7.9027349590505236e-01  6.4559355425977394e-01  1.1591506487129031e+00  7.4581831584806912e-01  2.5996004197044370e-01  6.7057358552289570e-01  1.1976036943763062e+00  2.3196987781684375e-01  5.7277080364829779e-02  4.3639205506389361e-01  7.5029598558946031e-01  6.4137255144629743e-02  1.4664622375106540e+00  1.1725207709924836e+00  3.2424058459668620e-01  1.4003454785728264e+00  1.8265117841659240e+00  2.1120307506370972e-01  1.8749573904241177e+00  1.1454172542507707e-01  7.2891790561526715e-01  7.0144181168935804e-01  2.3200768330552964e-02  4.4074195800413260e-02  7.1675259523413012e-02  6.5608624513980374e-01  6.6846901772244305e-01  3.1682071221170033e-01  8.1281755428677116e-01  1.2318292159579611e+00  2.2213269541965583e-01  7.3107935399297586e-01  1.0565115386970024e-01  4.4349545700682325e-01  5.4361320967181237e-01  4.1833895086406525e-01  3.0893647823436376e-01  8.3027957937773600e-01  1.0681795660152569e+00  3.4726207589711905e-01  2.9357835458252873e-01  2.6725856395693426e-01  3.1212459453257561e-02  2.5750720702959008e-02  1.6941330736729379e+00  1.3089399324767517e+00  1.2486050563397295e+00  3.0720336748169907e-01  2.2147388900456783e-01  1.8244687985551697e-01  7.5967983636471570e-01  3.6759114715854646e-01  1.3551062244171810e-01  7.1398827816643529e-01  6.0154650471887816e-01  2.0346575907884989e-01  2.5242667569156052e-01  1.3710116218911212e+00  2.9255185389157706e-01  8.6819952849039372e-01  8.1142008709838342e-01  6.1234103073687940e-01  1.3898276443335216e+00  7.9639857666466973e-02  6.3642122220205799e-01  3.5119385418016852e-01  7.1232840901511485e-01  5.1926954019266913e-01  5.9010798286753957e-02  3.9719930644934992e-01  3.3174328009837606e-01  9.5376931346234894e-01  8.4248440963710125e-01  6.1250272608190970e-01  5.8003596538101021e-01  5.6653320572951948e-01  5.8028256310392601e-01  6.7782646303297356e-01  2.2065061711531289e-02  1.6445270699975800e+00  4.7655282523021203e-01  8.0348371036360544e-01  8.2612590617116843e-01  8.0271974929938716e-01  1.1278048975488990e-01  1.2643104544491248e+00  1.9079759472883820e-01  7.4122921250570040e-01  1.8653786765558286e-01  1.5633787843026767e-01  1.4960957883327228e-01  6.7450083826615470e-01  3.7369437504360875e-01  2.6490361888876224e-01  2.8894926611334204e-01  2.9685617242074364e-01  1.7055994664466452e+00  1.6084768612381219e+00  9.0554977628288055e-02  4.2607002319271620e-01  7.3242966357286532e-01  1.2337304758428489e+00  7.5026951853411483e-01  6.9427701958994625e-01  1.6253964718507499e+00  9.1927865001691667e-01  1.7238461531978404e+00  1.2609856865517994e+00  2.3041803549145073e-01  7.9599264574275841e-01  6.7436726913660727e-01  1.0286648553995614e+00  3.8573619696419992e-01  1.7688099592218045e+00  9.7118753635689459e-01  9.3891693507841587e-02  4.1098389719783768e-01  1.3943208635826414e+00  3.7362538360090625e-01  1.5566462048189105e+00  3.6653759847022677e-01  7.9872355741052292e-01  2.4640625884364437e-01  4.9988847468056830e-01  2.5447949505566675e-01  4.9142324780490287e-01  4.5002127036051853e-01  4.5223902466364480e-01  6.0077945276946099e-01  2.7952123736945961e-01  4.6672733050863158e-01  8.8051528423242353e-01  1.2445385857934251e-01  8.7339000505176112e-01  7.9596609699194754e-01  5.4647104902754151e-01  5.1787129617895933e-01  1.6140237853304011e+00  3.2512662122042396e-01  2.8910022789633993e-01  1.3692317709318038e+00  1.6160042702153707e+00  6.3005863155932651e-01  1.4567874736466395e+00  3.0840169099562542e-01  7.7037257977993356e-01  3.2842791713259234e-01  8.5616137556999961e-01  3.8078605915748370e-01  1.9789995900775503e-01  8.3375772432452955e-01  7.0988657465787852e-01  7.5602111938730579e-02  9.5016754928718403e-02  4.8023972789964237e-01  5.1282041467596365e-02  7.3052433051870302e-01  4.6164673968937281e-02  2.0532209711077970e-02  2.3272647629103185e-01  3.5625121131850429e-01  1.4861932462215159e+00  4.2942305406691061e-01  5.9865675730043888e-01  2.0817618847348892e-02  4.5866445088639636e-02  1.3310352574418380e-01  5.4806097415057334e-02  5.4022491677158013e-01  1.8715163359180567e-01  2.1701160023901753e-01  1.2178361183668747e+00  9.3556519264998061e-01  9.1885320585122621e-01  1.2858738507856338e+00  7.6117923274423993e-01  7.7720848319965918e-01  8.8530914744243450e-01  1.0900379534780875e+00  2.1453467934919637e+00  6.4254248424649973e-01  1.3141508614813942e+00  5.6216562410796467e-01  5.7657674852322560e-01  4.8576855846000450e-01  4.9046220574834937e-01  4.5881908167824792e-01  5.7401838415042539e-01  4.1675486043876525e-01  4.4035688090758147e-02  5.0558129254639195e-01  1.5882943473883033e+00  9.9388295762071333e-01  1.8912059468612602e-01  1.4980969373219664e+00  6.2827069354415943e-01  5.2141502911416637e-01  1.3734161433983021e+00  1.4180791193684557e+00  4.2886441912117113e-01  2.6572551714892606e-01  1.1375568276299698e-01  9.4328444500668643e-02  1.3059490506660884e-01  5.1342566061349115e-01  7.6339073482325093e-01  5.8816732986236386e-01  6.0094873393082548e-01  5.8074658217257991e-01  5.5818737459935364e-01  4.7644085028595379e-01  2.5664985520834620e-02  4.1005735629043437e-02  4.4886768343414696e-01  3.6759085140938086e-01  2.3519369252101832e-01  6.3130683289770229e-01  2.5836941735184143e-01  7.7700068676430956e-01  6.9101369248798494e-01  6.4450377958393534e-01  4.0607869211655151e-01  5.8613407742887036e-01  3.9936839525185473e-02  5.8249939322917732e-01  9.9703844790930551e-01  1.1170269914856858e+00  1.0841824949829890e+00  1.5973702948713533e+00  1.2961628251888557e+00  7.5082337664932786e-01  8.2150132493366723e-01  8.3256303428592704e-01  7.7322905002823739e-01  1.1696010371091470e+00  1.1938668328889657e+00  1.2291097654771259e+00  7.8946184857542334e-01  5.3255326311736739e-01  3.1767067567043322e-01  9.1887410519257820e-02  5.0908671972806496e-01  1.0714126718599302e-01  1.3676369652033940e-01  6.5100082081564836e-01  2.6384942899742175e-01  8.2010353061829611e-01  1.0489656349119736e-01  6.8514600640336787e-01  6.9604148651161424e-01  7.1556265012671572e-01  4.1268507143334793e-01  5.6129122524678698e-01  7.4360604714429601e-01  7.3565630855931285e-01  1.2912992976282975e+00  1.3277590630824128e+00  8.3436868724199564e-01  6.3769324551065287e-01  4.6963726830561403e-01  4.8141378353409647e-01  6.5094247704100150e-01  1.5026172928101356e+00  5.5837769056151021e-01  3.6025721664265253e-01  3.8413504414900018e-01  8.1717238634272216e-01  1.6763934928819058e-01  1.3432635703884588e+00  4.1204701459304299e-01  4.2344331983984446e-01  2.7117122768098323e-01  1.6711814281012671e-01  6.1701775035340634e-01  8.0235979542180913e-01  2.6839715086561811e-01  1.2409407285529863e+00  2.0326635836526813e-01  2.8909297777648257e-01  4.8053757128460939e-01  8.1858795566458564e-01  1.4878730154782699e-01  3.8269139630093818e-01  1.7429156206218814e+00  8.1732489456238500e-01  7.1322502104248942e-01  3.3609861951249664e-01  1.1818371323544963e+00  7.3090498603318321e-01  8.4906059624812721e-02  6.3948905481769763e-02  4.5342521226799459e-01  1.7880866014094225e+00  5.1633726522201995e-01  6.2829585228658991e-01  1.5079640606794809e-01  1.5662406938341808e-01  1.5629607871372388e+00  6.4184166976043081e-02  1.4641529798925872e+00  6.7895777280412950e-01  8.8057474202209773e-02  1.3375937296093685e+00  1.4505135937310325e+00  2.1652014275756912e-01  1.4117763227244344e+00  6.9327445927739983e-01  1.9886066500194230e-01  2.7321777482398707e-01  1.9484517080664618e-01  1.3137320700051075e-01  7.0638527213557201e-01  1.7913167478144969e-02  7.4659571918834156e-01  7.7164596624767390e-01  3.4221954783672476e-01  1.1177148548572720e+00  3.3586581403341353e-01  3.0226209488116174e-01  1.5850805355943332e-01  7.5307852042162271e-01  8.2420248016219300e-01  7.9060830115821856e-01  7.9316162420200165e-01  6.5914402767854607e-01  3.5035642458555266e-01  8.4472962868904444e-01  8.1505427158653010e-01  8.1529503679419124e-01  3.3010975152224764e-01  1.6251319230199870e+00  3.6213177433409366e-01  1.2458946096069563e+00  1.2112275066136298e+00  4.6376251410471331e-01  1.2234238140753408e+00  1.7516821810786509e-01  1.3582457337729752e+00  5.8513742278187630e-01  1.1812825508871805e+00  1.1266784592760315e+00  1.1233086875580909e+00  1.3973977616670274e-01  5.2663091015653485e-01  3.4288691002867366e-01  2.1197491842152932e-01  5.4253526003734087e-01  7.7153551935078657e-01  1.9581360643123398e+00  2.4648636519196468e-01  7.4046218971326117e-01  4.2029055476159344e-01  5.0977799656810474e-01  5.3033287716456290e-01  2.9201886042890857e-01  3.9232288197870557e-01  2.2131392681119841e-01  1.9811253780175478e-01  5.9207164151162214e-02  3.7448566416531709e-01  1.1139850481343612e-01  6.6924569120447619e-01  7.0499230359863618e-01  1.5437254297292160e+00  1.6288138358722615e+00  3.5811570900949680e-01  1.2846432701279664e+00  1.6577958296155804e-01  6.6185777192492579e-01  6.3527163167247402e-01  6.4055645050585963e-01  4.9180419573195655e-01  7.1964966535380470e-01  1.6616698701667132e+00  7.8203079349742233e-01  3.5663272373218574e-01  1.2000747196265069e+00  1.3723599729486513e+00  9.9156114862392342e-01  1.2114843586688831e-01  4.6288322541668558e-01  7.8414396691805466e-01  8.7826567760462504e-01  1.4196842106802332e+00  5.1063534170167624e-01  1.9019977156345930e-01  9.5076810373020915e-01  1.6621088767179852e+00  1.7609281846719527e+00  5.7284570598697820e-02  8.3966942182301607e-01  2.0621652726361700e-01  5.2887572021073503e-01  3.0983779710649983e-01  1.7506224145400998e-01  3.7306529630476821e-09  9.3798452577992997e-01  2.9989608931450729e-01  2.2322156983084006e-02  7.9864470947563626e-01  8.8967219725386626e-01  7.4949824354660424e-02  8.0464753654408261e-01  1.5559075602806718e+00  1.4950870563072665e+00  1.6584563081024420e-01  4.3820667120830853e-01  4.0659279927045733e-01  3.9541810585158005e-01  3.8362903333815651e-01  4.1234015461310825e-01  1.8026418633250854e-01  1.2190795381286035e+00  4.4631661996267730e-01  4.2402541612795697e-01  6.2105901899862337e-01  6.1765485998145098e-01  7.4968292599160746e-01  1.2653491269827386e+00  1.7716311039465071e-01  1.2463796956937598e+00  1.2616317629617710e+00  -1.8669709486280177e-09  5.1396002745813496e-01  4.9947197654207726e-01  4.9222240283367880e-01  8.1646118454188421e-01  2.5614719725301383e-01  5.9336202143625161e-01  5.8897403823706806e-01  6.8982373120925677e-01  6.6290913577361954e-01  6.9439379248872757e-01  9.7535330486785712e-02  6.3323671405352933e-01  6.1680237058020337e-01  6.4673570673456748e-01  3.9032280430618982e-01  3.0449109739641617e-01  6.8677284286036289e-01  1.5738306984695862e+00  6.2477800050575161e-01  2.3639160911466706e-01  7.4558895667886260e-01  3.6618784640766712e-02  3.9141401268626710e-02  1.6860940849636075e-02  8.4300092581275554e-01  1.7890450488735657e-01  1.1538782408714239e-01  5.5381341851375931e-01  8.2689709865159655e-01  4.8353026405900495e-01  2.4784706994448530e-01  2.2763867132568585e-01  8.0889663273597523e-01  7.9437060508545276e-01  3.2982767054134393e-01  8.5394658168733550e-01  8.9395458634601732e-01  7.9475567897400479e-01  5.5223629581505640e-01  5.6207888442476606e-01  4.6755122466836985e-01  8.6291438875851978e-01  5.3190806803209301e-01  7.9086887025499564e-01  4.9448966386842336e-01  1.4796263715135867e+00  7.6300025954451511e-01  5.8429197467618099e-01  7.8458278465902587e-01  3.7306529630476821e-09  2.0010582826735184e+00  1.8661231491038477e+00  6.4581884385306842e-01  6.8617099913323887e-01  8.1695156517979228e-01  3.3997831490638764e-01  3.2241079494015285e-01  7.9614843748043562e-01  1.5385053459354775e-01  8.2772033364273501e-01  1.5387608786561593e+00  1.4089392790558881e+00  1.6091431270173517e+00  1.4238300970582743e-01  6.1231853641055517e-02  3.6465226348669366e-01  3.4564397671951846e-01  3.3950261034668477e-01  4.6281365346299946e-01  1.5234151249314027e+00  5.4441960186253724e-01  8.3584507372675076e-01  3.1611229209770542e-01  2.0938247802831611e-01  2.2837755097339368e-01  1.5241699105131604e-01  1.4262829100962165e-01  1.2047485834695919e+00  2.5769851741251221e-01  8.0917360780369862e-01  2.4023154340423125e-01  5.4236484339770463e-01  4.1833852003321720e-01  6.1144624153435800e-01  5.9531649068405479e-01  5.6596585309471303e-01  1.7670364605546032e-01  5.0777855181267229e-01  2.7708510991547458e-01  5.3151660679288515e-01  3.2910692326519553e-01  4.5928471173916074e-01  3.24745405