<?xml version="1.0"?>
<VTKFile type="UnstructuredGrid"  version="0.1"  >
<UnstructuredGrid>
<Piece  NumberOfPoints="2426" NumberOfCells="4534">
<Points>
<DataArray  type="Float64"  NumberOfComponents="3"  format="ascii">0 0.41 0  0 0 0  2.2 0 0  2.2 0.41 0  0.2404508497187474 0.2293892626146237 0  0.25 0.2 0  0.2404508497187474 0.1706107373853764 0  0.2154508497187474 0.1524471741852423 0  0.1845491502812526 0.1524471741852423 0  0.1595491502812526 0.1706107373853764 0  0.15 0.2 0  0.1595491502812526 0.2293892626146237 0  0.1845491502812527 0.2475528258147577 0  0.2154508497187474 0.2475528258147577 0  0.5404508497187474 0.2293892626146237 0  0.55 0.2 0  0.5404508497187474 0.1706107373853764 0  0.5154508497187473 0.1524471741852423 0  0.4845491502812526 0.1524471741852423 0  0.4595491502812526 0.1706107373853764 0  0.45 0.2 0  0.4595491502812526 0.2293892626146237 0  0.4845491502812526 0.2475528258147577 0  0.5154508497187473 0.2475528258147577 0  1.1 0 0  0 0.205 0  1.1 0.41 0  0.55 0 0  0.55 0.41 0  0.275 0 0  0.275 0.41 0  1.65 0.41 0  1.65 0 0  1.375 0 0  1.375 0.41 0  1.925 0 0  1.925 0.41 0  0.8250000000000001 0.41 0  0.8250000000000001 0 0  1.5125 0.205 0  1.7875 0.205 0  0.9625000000000001 0.205 0  1.2375 0.205 0  2.2 0.205 0  0.7560964076246335 0.2151713709677419 0  1.99375 0.2152743902439024 0  2.0625 0 0  0.6875 0 0  2.0625 0.41 0  2.2 0.3075 0  0.6875 0.41 0  1.7875 0.41 0  1.375 0.1486128048780488 0  1.5125 0 0  1.7875 0 0  1.5125 0.41 0  0.9625000000000001 0 0  0.9625000000000001 0.41 0  0.4125 0 0  0.1375 0 0  0.1375 0.41 0  0.4125 0.41 0  1.2375 0 0  1.1 0.1486128048780487 0  1.2375 0.41 0  1.65 0.1486128048780487 0  1.126715909090909 0.2793064024390244 0  1.676715909090909 0.2793064024390244 0  1.348284090909091 0.2793064024390244 0  0.34375 0.3032389320646208 0  1.894702181800738 0.1282910975492754 0  2.092797818199262 0.1282910975492754 0  1.85625 0.3075 0  0.8630851210521902 0.286932093388664 0  0.89375 0.1025 0  0.35 0.1090282786671641 0  0 0.3075 0  0 0.1025 0  0.6526217841291382 0.288229645480046 0  0.7562500000000001 0.09660248895515888 0  0.6568633732316684 0.1557582854763441 0  2.099172119769978 0.25625 0  1.002356446954348 0.1010393851523063 0  1.99375 0.08395950269330846 0  1.459960956013612 0.3075 0  1.569025960719943 0.2986889805672169 0  1.03125 0.3278689922742084 0  0.75625 0.3247156761655783 0  1.959375 0.3126371951219512 0  1.749222215368287 0.1025 0  1.275777784631713 0.1025 0  2.2 0.1025 0  1.225938124459196 0.3075 0  1.550777784631713 0.1025 0  1.44375 0.07430640243902442 0  1.16875 0.07430640243902437 0  0.3528655045338512 0.2063263890916129 0  0.5890337614812103 0.08775733857679162 0  0.8504912436891263 0.190072835691683 0  1.899250267340833 0.2229966846119207 0  0.1020898364287272 0.3140258291809757 0  1.766482954545455 0.2934032012195123 0  1.051658316544432 0.2265720188842194 0  0.2 0.3400647632937836 0  1.421109702350723 0.2261157654379721 0  0.4812500000000001 0.41 0  0.4324401666997539 0.3216425986889796 0  0.098916018031319 0.09171660955420841 0  0.9508742791313441 0.2921736960864468 0  2.13125 0 0  2.118919042110979 0.3422084711244843 0  1.30625 0.41 0  0.20625 0 0  1.597888256393107 0.2173787389261347 0  0.4812500000000001 0 0  0.4324082967851086 0.08384041677422771 0  1.829299675393195 0.07400700849299596 0  0.568219932524165 0.3212274660843853 0  1.71875 0.41 0  0.268005226542646 0.08512186835670006 0  1.16875 0.41 0  2.038220665644273 0.332420740103091 0  0.6678017527842831 0.07701763866051195 0  0.89375 0.41 0  0.5111435174287687 0.07335351331957608 0  0.176193934632343 0.0734896648625108 0  0.07390688010811153 0.1697064032433452 0  0.05452951551825875 0.25625 0  0.61875 0.41 0  1.452769549894695 0.1548122580621249 0  1.369219062229598 0.07430640243902442 0  1.30625 0 0  1.720943423819132 0.1714577452753128 0  1.157188124459196 0.205 0  1.094219062229598 0.07430640243902437 0  1.304056576180868 0.1714577452753128 0  1.67579304192913 0.07430640243902437 0  0.2672907219039591 0.3037570723459566 0  1.209670467133757 0.1362100266964769 0  1.58125 0 0  1.03125 0 0  0.06875000000000001 0.41 0  0 0.35875 0  1.58125 0.41 0  1.631724228912893 0.3381867502687533 0  0.8240147050827157 0.1225233169495944 0  1.825608881788174 0.14499488549201 0  1.85625 0 0  1.44375 0 0  1.44375 0.41 0  1.85625 0.41 0  2.13125 0.41 0  0.7562500000000001 0.41 0  0.7562500000000001 0 0  0.89375 0 0  0.34375 0 0  0.34375 0.41 0  0.20625 0.41 0  0.06875000000000001 0 0  1.16875 0 0  1.03125 0.41 0  0.61875 0 0  1.71875 0 0  1.99375 0 0  1.99375 0.41 0  0.3972301426712326 0.2593842555611471 0  1.340625 0.3489494290853124 0  1.134375 0.3489494290853123 0  1.700180620188976 0.3438659752031281 0  0.5003922072260507 0.341765274319271 0  0.6212513815748759 0.2209216137134851 0  0.6885607720119526 0.215393731583638 0  1.033412357328477 0.1612902025713047 0  2.135782184673599 0.07126652247502523 0  1.668441847249787 0.2129203728327609 0  1.295782514339747 0.2378437748815763 0  1.409375 0.3520314716057996 0  2.129248544730567 0.1906135162504124 0  2.060771381434487 0.1989445750470348 0  2.013252586573865 0.1496169464686054 0  1.942766402200229 0.1734448904596831 0  1.895522487186454 0.06076163953489683 0  2.069553871656643 0.06605731020975725 0  0.9281250000000001 0.3539050257418612 0  1.274680914880868 0.3520219391081363 0  0.3030138498135347 0.2488370856812789 0  0.8223773249563684 0.341761430177996 0  0.9018164060227267 0.2326477848736739 0  0.8143027982392851 0.2440265179987191 0  0.7225087161029304 0.2699907246386231 0  1.614713220494657 0.09473434380863296 0  0.378125 0.3566194660323104 0  0.309375 0.3566194660323104 0  1.72990325744076 0.2380068107952482 0  0.6915936999299305 0.3429472631234433 0  0.6268087624932918 0.3466455500035671 0  1.356580098625191 0.2120393231351682 0  0.3060160055995138 0.1590148921620778 0  0.3954648733249218 0.156380553890791 0  2.034370752044885 0.2668681600792073 0  1.51768709249349 0.3426260931494756 0  1.561883724969884 0.1650446847858835 0  1.197344062229598 0.2523725417393646 0  0.9281250000000001 0.05124999999999999 0  1.804085235518364 0.3468178408964637 0  1.817887819205233 0.2589243285818559 0  0.9107805776841645 0.1653834539923287 0  1.905897727272727 0.3485060975609756 0  0 0.05125 0  0.844212276491354 0.0614201194265309 0  0.378125 0.05244637078450034 0  1.008571329007178 0.2705955969954818 0  0.7724048032149464 0.1559079561351474 0  0.7203054377831548 0.04941826955193545 0  1.192836486056382 0.3562350748565544 0  0.5967108020713719 0.1479294686523888 0  1.28257088594801 0.2944411014911587 0  0.7041890234548132 0.1222025174424443 0  1.474860187679412 0.2504218616229368 0  1.406767003493824 0.2829282258560709 0  0.3201325899091991 0.05890121548989159 0  0.5979220912872258 0.2727591995766724 0  1.845656689180403 0.1998310418452388 0  2.144958525570388 0.2909790873294231 0  2.2 0.15375 0  1.57794966442982 0.3540357145964566 0  0.9483181579620558 0.1214693369582054 0  0.0496154796471391 0.333125 0  1.508991196088596 0.1421783375065625 0  0.09776612425612034 0.2204896805326566 0  1.50436820029908 0.06143401634903343 0  1.223857000523521 0.0823554862453532 0  0.2531953886959507 0.3582003209055908 0  1.153316824384777 0.1289850171317837 0  2.148922302309752 0.1258841779285271 0  1.621993280276081 0.2841214267927899 0  1.550118654119087 0.2461998729100966 0  1.327182649291491 0.1216967252533594 0  1.753125 0.04556020050186112 0  1.271875 0.04556020050186116 0  0.9824282234771738 0.05051969257615314 0  1.039510847866381 0.05683351822678641 0  1.94956388244759 0.1180512551534177 0  1.949997712993411 0.04965831614304109 0  1.771961817615021 0.1530278789497521 0  1.909246823951428 0.2812757146784527 0  1.101974016627944 0.2038045618205013 0  0.7906250000000001 0.0444674049654372 0  1.948575539857022 0.2445328248721197 0  1.697271520964565 0.1233917627620729 0  1.065625 0.3689344961371042 0  1.085849084308977 0.3170853572226867 0  0.9840604787624379 0.3582077516409966 0  1.577403511714593 0.05463601888079143 0  0.05622663515370135 0.05493816910862376 0  0.8762396958822678 0.3392249777398821 0  1.751571320346033 0.3651102912045228 0  1.055327852410105 0.111864799513911 0  0.1583785085108421 0.2994699345738728 0  0.1455283439499995 0.3542795598723423 0  2.2 0.35875 0  0.225705107073232 0.05084786997482401 0  0.1455852234589313 0.1166494778469164 0  1.466879772203159 0.3611261772912453 0  1.990280163552011 0.3564754268533217 0  1.17471064520912 0.2990917256188288 0  0.7221925551074015 0.1739659241003985 0  0 0.25625 0  2.2 0.25625 0  2.2 0.05125 0  0 0.15375 0  1.853978576207987 0.35875 0  0.21965520498276 0.1015543880164422 0  1.515638456102889 0.2882700110184686 0  0.09048297387599738 0.3637717362208066 0  2.150453692751374 0.2387066338105111 0  1.323782677156475 0.04897634338873398 0  1.409375 0.03715320121951221 0  1.406484531114799 0.1087852750766809 0  1.134375 0.03715320121951218 0  1.627401732573545 0.04552157221025036 0  0.446875 0.3713289093361426 0  2.045405893604797 0.1105340662939892 0  1.255408269734577 0.1577307500159216 0  2.028125 0.03707597992059326 0  0.04420832937638274 0.128125 0  0.5817551710628505 0.3702615006034757 0  0.1197849154434487 0.2663398672460083 0  1.248258025468107 0.2565907092181813 0  0.1300647302703173 0.0508462728378621 0  0.7738123537510222 0.2761231499240648 0  1.203125 0.0366132337404304 0  0.5444207041612499 0.111205399508622 0  0.8016457771828226 0.1964238426015905 0  2.072662025974815 0.2975086504196739 0  0.4019040438866802 0.2103993403217561 0  0.4677372330974851 0.04827477407630658 0  0.8677218578847617 0.1432970430140788 0  1.058011122005847 0.2758866204059919 0  0.4429405887974043 0.2746184809910084 0  0.5843750000000001 0.03726989681835222 0  0.6318596133730142 0.1128692182767254 0  0.4862628454464408 0.2957029785303028 0  0.7805186758662764 0.3673578380827891 0  1.887722846421017 0.1760882698830035 0  0.3498893058880703 0.256189258793856 0  1.472640588990488 0.1118278026240017 0  1.865937103925594 0.2604137786483804 0
[...]
<PointData  Scalars="f_43"> 
<DataArray  type="Float64"  Name="f_43"  format="ascii">4.2140555457967904e-01  4.5323349479736025e-01  1.7259811787020371e-09  1.3546574111305766e-09  -3.6203518242790161e-01  -3.2354039597373485e-01  -3.4482909219169622e-01  -5.1145082745820736e-01  -9.2846052961348891e-01  8.6342767519946362e-01  1.9960930854176600e+00  3.9965980755383235e-01  -1.1569865884014701e+00  -5.0760377135187074e-01  -2.8353988181141621e-01  -2.5273560122501276e-01  -2.8195444037849671e-01  -4.4256900045566699e-01  -9.9701417001052117e-02  -9.6033906386240570e-02  -3.0792291737904876e-01  -1.6789696959820943e-01  -9.9213189939352422e-02  -5.2406976700674934e-01  1.9205385114873082e-02  7.6434770421041687e-01  2.1789966903463055e-02  -1.9160195141464442e-01  -2.0463500435785595e-01  -1.1618856768426979e-03  1.7822553777340024e-02  6.4576076259882001e-02  6.3808271671823139e-02  9.3053300546613552e-02  8.9522116561169165e-02  3.1921918286871513e-02  3.1970605658633078e-02  -9.0790262493304574e-02  -1.0173568985412253e-01  7.9819077515954948e-02  4.8087786583187832e-02  2.0549787047896943e-02  6.0117372778975491e-02  3.2459397019399407e-09  -4.8159250347256044e-02  2.4006881616523600e-02  1.5852093474723276e-02  -1.3920940512012830e-01  1.6259126590884430e-02  1.1137897227919427e-09  -1.5863596305996899e-01  4.8114552455195622e-02  8.3637704378292155e-02  8.1453025991309450e-02  4.8076984449877812e-02  8.3777728417845629e-02  -3.1761298821833324e-02  -3.6385850312661706e-02  -1.9437868732708488e-01  3.7012365914842132e-01  3.4595427669209194e-01  -1.8132031788408487e-01  5.4899930837029119e-02  1.2187109241872914e-02  4.4678050618405907e-02  6.4133135756335558e-02  2.6338187610676991e-02  6.1208654927694874e-02  8.2502379814570523e-02  -2.6150262583822370e-01  3.5539508074962062e-02  1.2452015084709089e-02  4.0031724377335570e-02  -2.6934396695279934e-02  -3.7527967227556747e-02  -3.1264911260581546e-01  5.1818125079587163e-01  5.5310459964129233e-01  -1.9860617563942901e-01  -1.0353929323460628e-01  -1.8479753841845745e-01  1.1736384599953482e-02  -2.0205340286316375e-04  2.4003141668875436e-02  8.7559861845977707e-02  7.4760518599869902e-02  2.5927713085656836e-03  -1.0706486514486876e-01  2.8069346028265003e-02  5.2406256013177603e-02  7.0307808721452217e-02  -2.3311012764463931e-09  4.1835810747434338e-02  7.5890365327929893e-02  8.8545610784402137e-02  2.9299273268502592e-02  -3.7020783651671552e-01  -2.0535471574667177e-01  1.8796881598405597e-02  3.5014026817266619e-02  4.6155710198814071e-01  5.0534860080533039e-02  2.6110218236756279e-02  1.4911963808451908e-01  8.5796751761552770e-02  -2.0427806549950581e-01  -2.2595785143478178e-01  4.9187013526741524e-01  -1.2626476196834905e-02  7.9163038742303612e-03  9.4030183259236049e-03  7.0096832713640547e-02  1.9759458713063077e-01  7.0645008532517775e-02  -2.0317459199162857e-01  -2.1358285703425678e-01  4.3190727455549929e-02  -2.3213596034495598e-01  5.6023244103918769e-02  -1.5042441216475258e-01  3.0836588607690039e-02  1.8874710243063104e-02  -1.5019297221689235e-01  -6.5284872351336135e-02  -2.1207757320630369e-01  2.1465512805864059e-01  8.9714449629979054e-01  7.1904257586685127e-01  -1.8761239537660004e-01  8.3846536175341921e-02  9.1182555651270716e-02  8.1593098186859017e-02  5.5830433899080226e-02  3.6641328258780713e-02  1.8700161390565687e-02  7.8983708893018520e-02  6.0749722787230537e-02  -1.8961166591508793e-01  5.8604871846961198e-02  7.2137696844265423e-02  4.1804370392211024e-03  4.0921354951685462e-01  4.3360447037995525e-01  7.3542077917299317e-02  6.6763297053355916e-02  -4.3742910956656209e-02  4.3601014229744411e-02  3.9898072574066405e-02  9.0017411795959845e-02  9.1649357476891291e-02  3.9902866937148243e-02  7.9900706494315018e-03  -1.2355071305239547e-01  -1.1772665935432140e-01  -7.4714024237689983e-02  -1.4053975590228465e-01  -1.1176541031659010e-01  1.9526997384163014e-01  4.3894726092682640e-01  3.0470000111422042e-02  -1.8035358444631695e-03  -1.6542873730713351e-01  5.5819751931122645e-02  2.3936851073873822e-02  2.3860700544290524e-02  -3.4806098682414738e-01  8.0372436997100644e-02  2.8797220841251622e-02  5.8281876702462862e-02  -2.2017663574260385e-01  -2.5263486681198283e-01  -1.5723635261801672e-01  -2.3761534056227912e-03  7.4413621599641721e-03  6.2161247459283385e-02  7.4555027087622530e-02  9.3071242948071842e-02  8.2391619059265855e-03  1.6208670614119777e-02  2.1709947127988932e-02  2.9940311920898365e-02  3.5403154773866401e-02  1.5114702948634141e-02  -5.0965544146148282e-02  5.3698108600105918e-02  -3.5732444717609191e-01  -8.0999911011077910e-02  1.3368319114032698e-02  -7.7811398912281727e-04  -1.0442874778726273e-01  6.8042074921271706e-02  -1.7309616107294890e-01  -8.8647262538512309e-02  5.4872042225597994e-02  -1.5381161379060396e-01  -1.8924798299261589e-01  8.4646978610811691e-02  -3.5124556285894187e-01  -4.0775724011875247e-01  1.9281209150181500e-02  8.2553350790065927e-02  7.4580191575140314e-02  3.7083913719374410e-02  -5.3585002567675767e-02  4.6101623708889684e-02  4.4515149438274483e-02  3.4306390672662293e-02  3.4237014242283190e-02  4.6614977916359401e-01  -9.2549412237667592e-02  -1.9371779532498010e-01  1.4872448416455016e-02  -6.4168388746152133e-02  -1.2339024057909315e-01  3.2071227668903919e-02  -2.3398256517773713e-01  6.1266585317970287e-02  -1.3816747311529107e-01  8.3634376074025796e-02  8.8076594758755011e-02  -1.3682679381752408e-01  -2.6253587694995772e-01  4.1278096364749037e-02  6.3983920028281632e-03  -1.9700371291052836e-09  7.4009225846208032e-02  -1.4516556261328537e-03  4.5707223909356987e-01  8.0029270663037874e-02  1.1163989377309578e+00  8.2432669443132628e-02  4.8591536173177352e-02  2.7981398117985303e-02  3.6787659506922699e-02  5.9478701273620619e-03  6.7960334113890505e-02  7.6289328490790356e-02  8.1684814320470159e-02  5.1907861576363241e-02  6.7285220076055849e-02  -1.7596919154212839e-02  9.0391310521480417e-03  2.9152963663495929e-02  2.9054010351762992e-02  4.9858082818792795e-02  3.3849024973031577e-02  2.0177781000788129e-02  -1.0730392531074799e-01  2.9288241452017014e-02  5.8478039404787817e-02  1.3373732638864700e-02  2.2660558079376895e-02  -2.5537215006762287e-02  7.2565121807998387e-02  4.5933442378831230e-01  -6.2210013517813412e-02  5.2207912101995810e-02  8.7741727817285016e-03  2.2923150878742812e-01  3.2029266076002622e-01  -6.0073512727153978e-09  9.9095990001994774e-02  3.3844812363049359e-01  8.9605070916190258e-02  2.4482606022872326e-02  3.3946803131080359e-02  -1.1405197743886090e-01  6.6971692409450723e-01  1.1137897227919427e-09  1.0801014622964274e-09  6.9655824387791665e-01  4.0266093624576123e-02  -1.3865063359196847e-01  8.1030115075047482e-02  4.0055038202310411e-01  5.7675866769658695e-03  8.5501139323351780e-02  9.2951485021548555e-02  8.7697043072524045e-02  2.2546106818002270e-02  6.6347790294060960e-02  -1.9773535639650583e-01  1.7944549045356750e-02  7.2711850987620161e-02  1.9942062073507200e-02  6.3990361653829775e-01  -1.9858638331000109e-01  6.6532117068791263e-01  5.6445759895852883e-02  3.7565785175364819e-01  -5.3478537025351117e-02  3.8864093875054261e-02  -2.6374927515387359e-01  -1.1874122560502489e-02  1.4836265527013301e-02  -3.4881223677727896e-01  -2.0150936319472712e-01  7.8620011373310185e-03  2.1012932963514256e-02  -2.3892964514487680e-01  -1.7951902637727238e-01  -1.9207612062256121e-01  -2.4006608186403017e-01  -1.0800885977038983e-01  3.6368336175059662e-02  -3.6408447263359844e-01  8.3945547649068517e-02  3.8898776071046567e-02  7.4887553605633645e-03  8.3507934771900189e-02  -1.3186305482659616e-01  8.8461505012625022e-02  -1.4128532619114748e-01  -1.6018621594244373e-01  -1.3291018997461798e-01  1.6144246103845072e-02  -2.2627089525593641e-01  -1.8461595546159842e-01  5.5772616049905785e-02  -2.9999201202381942e-01  -2.4842190900064878e-01  4.9669561193486998e-02  1.0994777229629320e-02  8.4816596965393329e-02  -4.2706162414663046e-02  2.0129047854331766e-02  -3.5046626837080425e-01  -3.5517567232027092e-01  6.9674481910943442e-02  -3.8697822270166127e-01  9.0492922151352295e-01  4.5183731086895766e-02  8.3947639810575359e-01  2.4413928091353745e-02  8.9816527734634284e-03  -3.2438681476994559e-02  4.3805241881461508e-03  1.2029021448247525e-02  1.4528146536169712e-02  -1.0205211162494026e-02  1.3796186763950993e-02  6.8890372155741120e-02  -1.6895314868830946e-01  -3.0783821468383121e-01  4.7322307819763140e-02  -7.7553264591620541e-02  2.2556884780502544e-02  8.6558266386979096e-02  5.6453999084962909e-02  8.5806490685723213e-02  6.6526508851375968e-02  -2.0759204028137976e-01  -1.9894179232943673e-01  7.8522214583483754e-02  5.9653005590262723e-02  5.7020692546863573e-02  4.6517421226550601e-03  4.7030488305090891e-03  4.1891094731721529e-01  -3.0802341803670324e-01  -3.9890651888974324e-02  6.6292317357920322e-02  4.6846946021140749e-02  3.8696963288788785e-02  -9.0062876183478024e-02  7.6583439553849428e-02  2.9561455761957275e-02  -7.6484469188468282e-02  2.4996749451217572e-02  4.3987448279440539e-02  5.4039998970212007e-02  2.9390036996659114e-01  6.2762168830149165e-02  -1.9996679948793919e-01  -1.9507648704862107e-01  1.6110916732340882e-02  2.8071457094723296e-01  1.6665279247949475e-02  -5.2164404842939471e-03  7.5645063929877021e-02  -2.5963717452561402e-01  4.0597775762873697e-02  1.2311472063218672e-02  8.7332982314522301e-02  7.1811816408018439e-02  -2.7426205033499068e-01  -1.6808614634887614e-01  1.4192745965464462e-03  2.4179969398602497e-02  2.6908153405808433e-02  2.6094281536842821e-02  2.7014156355127675e-02  4.5635239586905019e-03  4.1500398247435882e-01  7.2215863053712706e-02  -1.3765444256862217e-01  -2.1972491251794260e-01  -1.2907581001227314e-01  2.4488669880131726e-02  -3.3822875674946340e-01  3.5935490086606570e-02  -9.0799664184209039e-02  3.9870625362016389e-02  3.6030762732477573e-02  3.1577059112425358e-02  -2.6554275446127412e-02  8.0600525337643059e-02  5.6595960274590913e-02  6.1860337590855373e-02  6.3556232350722899e-02  4.5055995303170043e-01  4.2176673552780580e-01  1.9005662136968814e-02  8.4851250002137085e-02  -7.8792907697731826e-02  -7.7301320962859299e-02  -8.6612030823352698e-03  -2.0924451844545173e-03  5.5408540284485808e-01  -2.2479323563700584e-01  6.9165301989255190e-01  -1.8189301655364282e-01  4.9021770777373380e-02  -1.0513905204921969e-01  -3.1945636975274201e-02  -2.5430613151544962e-01  8.1578982397447861e-02  7.6073217838412110e-01  -1.8551533884496704e-01  1.9436967858387839e-02  8.6652983662011004e-02  2.5083032669489419e-01  8.0281640020621187e-02  5.9464177440531418e-01  7.9047192500420221e-02  -1.2387978702809266e-01  5.2770241821909515e-02  7.1881003800870855e-02  5.4416545136039399e-02  7.6688313075054027e-02  8.6523768794387737e-02  9.2357584244035965e-02  1.6632449524139566e-02  5.9954097101726229e-02  8.1731593353399815e-02  -1.9192826702409402e-01  2.6307624359798817e-02  -2.3054884636764308e-01  -1.5279991297821607e-01  4.2687093896853753e-02  6.4787832060356224e-02  5.2745986203439110e-01  7.0514346818556922e-02  6.2257701564964907e-02  2.3188139277352363e-01  4.3416008570541903e-01  -1.8797985948683458e-02  4.9648388022016221e-01  6.7363998822603577e-02  -7.3475830025056921e-02  7.0772809130840775e-02  -2.0013816419795485e-01  8.1121254174039661e-02  4.4078998206379297e-02  -1.6775392553901861e-01  -6.4070683455397168e-02  1.5948051483951262e-02  2.0128144082859928e-02  8.0051508302564856e-02  1.0609694691690593e-02  -5.8508052704743067e-02  9.6490020149524822e-03  4.2878208448205802e-03  4.9868068502664675e-02  7.7039280960474438e-02  -3.4661906831785522e-01  9.1094922024873529e-02  2.3761398548573932e-02  4.0805490161467334e-03  9.2857350930272402e-03  2.8305079255470350e-02  1.0598862445967869e-02  4.5598165350738566e-02  3.9785818377143053e-02  4.6349596759504966e-02  -8.0823658087160310e-03  -2.1372489063958988e-01  -2.0455641503321287e-01  9.5183831330731938e-02  -8.0888321212647163e-02  -1.1520044078842163e-01  -2.0738967741218081e-01  -1.8273708789368792e-01  1.3611986606268056e+00  -2.6372447933061191e-03  1.5213362480707487e-01  2.9509977718519504e-02  2.7117601672877870e-02  6.9371504351552607e-02  8.1998922659685336e-02  9.0057914228704072e-02  3.1038564135160082e-02  8.4471234722651875e-02  9.1105459195194322e-03  3.6372179108855873e-02  -3.5256264995585973e-01  -2.0257894436763310e-01  4.0287317777633752e-02  -3.3926191831952673e-01  -2.5226169247977936e-01  5.3128739384181549e-02  -3.1221119836609956e-01  -3.6327739067496223e-01  9.1249330499369036e-02  6.0336672433414229e-02  2.4063013365120785e-02  1.9893059714198670e-02  2.7937268349834125e-02  5.6603151499519729e-02  -2.1510782828165745e-01  2.5284142621813877e-02  2.3811281973427911e-02  2.7938873498976412e-02  2.8690208590085423e-02  8.9385581305354275e-02  3.8780827936845922e-03  1.2080747489354600e-02  9.2800084414723677e-02  8.8210550598960338e-02  5.2016013036980072e-02  1.2349392508523920e-02  5.1793804987011999e-02  -1.2733058497424263e-01  -5.4047776720478509e-02  -5.1495568568794017e-02  9.3006646748270846e-02  2.3592429917058497e-02  3.8771623141069327e-03  1.3800706278849587e-02  -1.9614735033103006e-01  -1.7455548605150556e-01  -1.5293697152425351e-01  3.8613285093424615e-01  1.0609194487580240e-01  -1.0621544721595519e-01  -1.8115054026795382e-01  -1.9847461146433631e-01  -1.0978806141868944e-01  -5.8140955237093520e-02  -1.2270534482636596e-01  -1.6574749988581408e-01  -1.7439294498423230e-01  4.1261557029687139e-02  6.7703974728135247e-02  2.8124704176301151e-02  6.9168946612789342e-02  1.9918945954325747e-02  2.8076961114873719e-02  -1.1198082749084621e-02  5.6229081531915776e-02  -1.6103938090638539e-01  2.2026241235116480e-02  1.4706147554537819e-02  2.7202323741139789e-02  2.6869860713236757e-02  8.5693679594573594e-02  4.5017111302317343e-02  -9.3292681083052983e-02  -5.6370589440738847e-02  -3.2656341387221305e-01  -3.4430560425148599e-01  -1.5037750020399088e-01  1.0591321684550656e-03  8.2743776148604592e-02  7.4922098121413927e-02  2.2014562232435392e-02  3.9058777956059965e-01  3.1504314212305533e-02  7.9074440319176958e-02  8.4693057274236372e-02  -1.0025864600439285e-01  3.3948896949601383e-02  2.8477524648932567e-01  9.0931201642331386e-02  9.2916867464252317e-02  5.8265428785526457e-02  3.5794544872304726e-02  8.3878053307495637e-04  -1.5073224569192678e-01  5.7613522712642494e-02  -7.4001056923548511e-02  4.3230033938686151e-02  6.2242825686729668e-02  7.9236971629107644e-02  -1.7465628008194645e-01  3.1940652135843517e-02  8.6108863487160528e-02  7.3431776146709304e-01  -1.7826657906082638e-01  -3.0609721342827866e-03  6.9840808261185702e-02  -2.8304817602769750e-01  -8.9264586093263057e-02  1.6051853252615430e-02  1.3075720068820591e-02  8.3506994463741394e-02  7.9783655417804178e-01  4.3219195743668219e-02  7.9481105064929079e-03  3.2088676871904351e-02  3.3245167584851083e-02  3.6433837965206095e-01  1.3268937165957570e-02  3.2688256854085995e-01  -4.1057970112441548e-02  1.8700634954429880e-02  -3.8916886968064540e-01  -4.0057641488336887e-01  4.5994225221452835e-02  -3.6599303993149729e-01  -4.2517107772992974e-02  4.2650390567334315e-02  5.8659389735514024e-02  4.1619075661898160e-02  2.7760766230497728e-02  6.4038044940284439e-03  3.7019706377271660e-03  1.2326310161235213e-02  -1.1109162991361931e-02  7.3574143816248036e-02  -2.0586448093113677e-01  7.2101402937374104e-02  6.4626719150891715e-02  3.3978437004392806e-02  -1.0144757089118833e-01  -1.1943842395608362e-01  -9.3241576011898308e-02  -5.5009538767131848e-02  1.7560963409414106e-02  7.6068340685893493e-02  -2.5208649045985848e-01  -1.8216898666075559e-01  -2.0691062745977964e-01  7.1557219385889437e-02  5.8010482885381942e-01  7.7741287744445733e-02  -1.0964546259894951e-02  -1.1341762616310956e-01  8.6008228171952403e-02  -2.4985927687863133e-01  3.7963141660367010e-02  -3.5991468174116503e-01  2.4113031105863342e-02  -1.5557703908492621e-01  -1.8387309178333655e-01  -2.1610163519050349e-01  3.0182441727678533e-02  6.6573004620109399e-02  7.4357453827969017e-02  4.5317257603439104e-02  3.4963334119859121e-02  -1.0587089304091625e-01  1.1196069761983984e+00  5.2835157362476799e-02  -1.1418558877132372e-02  -3.3393969128659395e-01  6.2938666429252763e-02  4.5110922810250108e-02  6.2768687885045388e-02  8.5757328297447560e-02  4.7350613588893434e-02  4.2340709046534433e-02  1.2426542362697001e-02  8.3479073854450761e-02  2.6362522606663611e-02  -4.3568162584109428e-02  -7.1241258964949483e-02  4.5363279134501683e-01  4.5189078360310303e-01  7.6893320534523760e-02  -2.8093096868050116e-01  3.5062294298679457e-02  1.7847310354698390e-03  2.5670279709255336e-02  5.5360923317651963e-03  6.0391211006280643e-02  3.0504860946970004e-02  5.9931887697567610e-01  -4.8424835889115413e-02  7.8162359339743845e-02  6.6560044563578849e-02  2.4017264654385967e-01  -1.2516977742830784e-01  2.5543089361200519e-02  8.2997529128050709e-02  -2.3612021291525279e-01  -2.0865355773145877e-01  -3.6129035025016482e-01  6.0837350750478782e-02  4.2066061974849210e-02  -2.5679676510163824e-01  4.3632717057590303e-01  7.4779851320135193e-01  1.1627354885094147e-02  -1.4399706003614246e-01  4.3332993482517561e-02  4.7742198317988829e-02  6.6435218409129734e-02  3.7394335823491817e-02  3.2459397019399407e-09  -2.2805062619398506e-01  6.4701021467375788e-02  4.0724495738971595e-03  -2.2545067279511635e-01  -2.2170804427698185e-01  1.5802238453039595e-02  -1.3355615365563042e-01  3.8574699255848444e-01  3.7066690717230577e-01  3.5396758650065335e-02  8.6032722623734653e-02  8.4680703980884606e-02  8.4894605100390888e-02  8.1625875883311313e-02  9.0619648461956720e-02  3.8348661524234690e-02  -1.9002422542041689e-01  8.6929942349626976e-02  8.6499097526948995e-02  1.4938617475855624e-02  1.4470530996365116e-02  -9.9295785144145013e-02  -2.3388109947705196e-01  3.7756455323306612e-02  -1.3268352568654534e-01  4.0005630862353481e-02  -2.3311012764463931e-09  5.2546926219491336e-02  6.6623062288812748e-02  5.8619691774548385e-02  -1.4598939053669296e-01  5.4556956686430604e-02  1.9727762394705362e-02  2.8363108605860821e-02  1.8656732537600404e-02  -1.6917190322650324e-03  -1.6424764318634003e-02  2.2438794339016868e-02  7.5600647492162828e-03  1.4525874545561791e-02  -2.2904894250353807e-03  8.2383300907509061e-02  6.5775033243581943e-02  -3.2955803695693252e-02  3.9133515098163518e-01  9.7722143009134760e-03  5.0031576980861685e-02  -7.4343942268193769e-02  7.3956574519112037e-03  8.1297913663732364e-03  3.3970485472748246e-03  -2.0181517415957639e-01  3.8173853748415844e-02  2.4770507861061272e-02  3.4115677541554972e-02  -2.1301374671576909e-01  7.8508094644557019e-02  5.3865431588896007e-02  4.9502322448715129e-02  -1.8046926320881887e-01  -1.9437984941613545e-01  7.0774660791859928e-02  -2.3460422001814807e-01  -2.6758655544729426e-01  -2.5611239291417864e-01  4.7383680614301052e-02  3.3579807556091128e-02  8.2516534536762193e-02  -4.2197697753677821e-01  3.5720610801739633e-02  -1.3028009371891910e-01  7.2302445438067436e-02  3.1597399045484242e-01  -4.1477247818382870e-02  2.1575466739728964e-02  -1.1454810164282285e-01  3.2459397019399407e-09  1.0749648703614552e+00  8.7527226446732276e-01  -1.1419442448669532e-02  -5.4938341847829399e-02  -1.3946422707153969e-01  7.4130038191637743e-02  6.9978969475310737e-02  -1.3542214933933386e-01  3.2540342248687251e-02  -1.9675372360154569e-01  5.1886784756120397e-01  4.6425378406844847e-01  4.6881110628358397e-01  3.0156848005774565e-02  1.2857955082081861e-02  7.8317058716449256e-02  7.4944674747916301e-02  7.3319774095565352e-02  8.1230628507087094e-02  5.2686962937003501e-01  3.7600243966153010e-02  -3.7958358462666403e-01  6.7996484800850882e-02  4.4719838739307634e-02  4.8964435727331973e-02  3.2233359089273883e-02  3.0789932357544264e-02  -2.0482091446528244e-01  5.5074948654564922e-02  -2.1497286475232538e-01  5.1303472534001582e-02  3.27000