<?xml version="1.0"?>
<VTKFile type="UnstructuredGrid"  version="0.1"  >
<UnstructuredGrid>
<Piece  NumberOfPoints="2426" NumberOfCells="4534">
<Points>
<DataArray  type="Float64"  NumberOfComponents="3"  format="ascii">0 0.41 0  0 0 0  2.2 0 0  2.2 0.41 0  0.2404508497187474 0.2293892626146237 0  0.25 0.2 0  0.2404508497187474 0.1706107373853764 0  0.2154508497187474 0.1524471741852423 0  0.1845491502812526 0.1524471741852423 0  0.1595491502812526 0.1706107373853764 0  0.15 0.2 0  0.1595491502812526 0.2293892626146237 0  0.1845491502812527 0.2475528258147577 0  0.2154508497187474 0.2475528258147577 0  0.5404508497187474 0.2293892626146237 0  0.55 0.2 0  0.5404508497187474 0.1706107373853764 0  0.5154508497187473 0.1524471741852423 0  0.4845491502812526 0.1524471741852423 0  0.4595491502812526 0.1706107373853764 0  0.45 0.2 0  0.4595491502812526 0.2293892626146237 0  0.4845491502812526 0.2475528258147577 0  0.5154508497187473 0.2475528258147577 0  1.1 0 0  0 0.205 0  1.1 0.41 0  0.55 0 0  0.55 0.41 0  0.275 0 0  0.275 0.41 0  1.65 0.41 0  1.65 0 0  1.375 0 0  1.375 0.41 0  1.925 0 0  1.925 0.41 0  0.8250000000000001 0.41 0  0.8250000000000001 0 0  1.5125 0.205 0  1.7875 0.205 0  0.9625000000000001 0.205 0  1.2375 0.205 0  2.2 0.205 0  0.7560964076246335 0.2151713709677419 0  1.99375 0.2152743902439024 0  2.0625 0 0  0.6875 0 0  2.0625 0.41 0  2.2 0.3075 0  0.6875 0.41 0  1.7875 0.41 0  1.375 0.1486128048780488 0  1.5125 0 0  1.7875 0 0  1.5125 0.41 0  0.9625000000000001 0 0  0.9625000000000001 0.41 0  0.4125 0 0  0.1375 0 0  0.1375 0.41 0  0.4125 0.41 0  1.2375 0 0  1.1 0.1486128048780487 0  1.2375 0.41 0  1.65 0.1486128048780487 0  1.126715909090909 0.2793064024390244 0  1.676715909090909 0.2793064024390244 0  1.348284090909091 0.2793064024390244 0  0.34375 0.3032389320646208 0  1.894702181800738 0.1282910975492754 0  2.092797818199262 0.1282910975492754 0  1.85625 0.3075 0  0.8630851210521902 0.286932093388664 0  0.89375 0.1025 0  0.35 0.1090282786671641 0  0 0.3075 0  0 0.1025 0  0.6526217841291382 0.288229645480046 0  0.7562500000000001 0.09660248895515888 0  0.6568633732316684 0.1557582854763441 0  2.099172119769978 0.25625 0  1.002356446954348 0.1010393851523063 0  1.99375 0.08395950269330846 0  1.459960956013612 0.3075 0  1.569025960719943 0.2986889805672169 0  1.03125 0.3278689922742084 0  0.75625 0.3247156761655783 0  1.959375 0.3126371951219512 0  1.749222215368287 0.1025 0  1.275777784631713 0.1025 0  2.2 0.1025 0  1.225938124459196 0.3075 0  1.550777784631713 0.1025 0  1.44375 0.07430640243902442 0  1.16875 0.07430640243902437 0  0.3528655045338512 0.2063263890916129 0  0.5890337614812103 0.08775733857679162 0  0.8504912436891263 0.190072835691683 0  1.899250267340833 0.2229966846119207 0  0.1020898364287272 0.3140258291809757 0  1.766482954545455 0.2934032012195123 0  1.051658316544432 0.2265720188842194 0  0.2 0.3400647632937836 0  1.421109702350723 0.2261157654379721 0  0.4812500000000001 0.41 0  0.4324401666997539 0.3216425986889796 0  0.098916018031319 0.09171660955420841 0  0.9508742791313441 0.2921736960864468 0  2.13125 0 0  2.118919042110979 0.3422084711244843 0  1.30625 0.41 0  0.20625 0 0  1.597888256393107 0.2173787389261347 0  0.4812500000000001 0 0  0.4324082967851086 0.08384041677422771 0  1.829299675393195 0.07400700849299596 0  0.568219932524165 0.3212274660843853 0  1.71875 0.41 0  0.268005226542646 0.08512186835670006 0  1.16875 0.41 0  2.038220665644273 0.332420740103091 0  0.6678017527842831 0.07701763866051195 0  0.89375 0.41 0  0.5111435174287687 0.07335351331957608 0  0.176193934632343 0.0734896648625108 0  0.07390688010811153 0.1697064032433452 0  0.05452951551825875 0.25625 0  0.61875 0.41 0  1.452769549894695 0.1548122580621249 0  1.369219062229598 0.07430640243902442 0  1.30625 0 0  1.720943423819132 0.1714577452753128 0  1.157188124459196 0.205 0  1.094219062229598 0.07430640243902437 0  1.304056576180868 0.1714577452753128 0  1.67579304192913 0.07430640243902437 0  0.2672907219039591 0.3037570723459566 0  1.209670467133757 0.1362100266964769 0  1.58125 0 0  1.03125 0 0  0.06875000000000001 0.41 0  0 0.35875 0  1.58125 0.41 0  1.631724228912893 0.3381867502687533 0  0.8240147050827157 0.1225233169495944 0  1.825608881788174 0.14499488549201 0  1.85625 0 0  1.44375 0 0  1.44375 0.41 0  1.85625 0.41 0  2.13125 0.41 0  0.7562500000000001 0.41 0  0.7562500000000001 0 0  0.89375 0 0  0.34375 0 0  0.34375 0.41 0  0.20625 0.41 0  0.06875000000000001 0 0  1.16875 0 0  1.03125 0.41 0  0.61875 0 0  1.71875 0 0  1.99375 0 0  1.99375 0.41 0  0.3972301426712326 0.2593842555611471 0  1.340625 0.3489494290853124 0  1.134375 0.3489494290853123 0  1.700180620188976 0.3438659752031281 0  0.5003922072260507 0.341765274319271 0  0.6212513815748759 0.2209216137134851 0  0.6885607720119526 0.215393731583638 0  1.033412357328477 0.1612902025713047 0  2.135782184673599 0.07126652247502523 0  1.668441847249787 0.2129203728327609 0  1.295782514339747 0.2378437748815763 0  1.409375 0.3520314716057996 0  2.129248544730567 0.1906135162504124 0  2.060771381434487 0.1989445750470348 0  2.013252586573865 0.1496169464686054 0  1.942766402200229 0.1734448904596831 0  1.895522487186454 0.06076163953489683 0  2.069553871656643 0.06605731020975725 0  0.9281250000000001 0.3539050257418612 0  1.274680914880868 0.3520219391081363 0  0.3030138498135347 0.2488370856812789 0  0.8223773249563684 0.341761430177996 0  0.9018164060227267 0.2326477848736739 0  0.8143027982392851 0.2440265179987191 0  0.7225087161029304 0.2699907246386231 0  1.614713220494657 0.09473434380863296 0  0.378125 0.3566194660323104 0  0.309375 0.3566194660323104 0  1.72990325744076 0.2380068107952482 0  0.6915936999299305 0.3429472631234433 0  0.6268087624932918 0.3466455500035671 0  1.356580098625191 0.2120393231351682 0  0.3060160055995138 0.1590148921620778 0  0.3954648733249218 0.156380553890791 0  2.034370752044885 0.2668681600792073 0  1.51768709249349 0.3426260931494756 0  1.561883724969884 0.1650446847858835 0  1.197344062229598 0.2523725417393646 0  0.9281250000000001 0.05124999999999999 0  1.804085235518364 0.3468178408964637 0  1.817887819205233 0.2589243285818559 0  0.9107805776841645 0.1653834539923287 0  1.905897727272727 0.3485060975609756 0  0 0.05125 0  0.844212276491354 0.0614201194265309 0  0.378125 0.05244637078450034 0  1.008571329007178 0.2705955969954818 0  0.7724048032149464 0.1559079561351474 0  0.7203054377831548 0.04941826955193545 0  1.192836486056382 0.3562350748565544 0  0.5967108020713719 0.1479294686523888 0  1.28257088594801 0.2944411014911587 0  0.7041890234548132 0.1222025174424443 0  1.474860187679412 0.2504218616229368 0  1.406767003493824 0.2829282258560709 0  0.3201325899091991 0.05890121548989159 0  0.5979220912872258 0.2727591995766724 0  1.845656689180403 0.1998310418452388 0  2.144958525570388 0.2909790873294231 0  2.2 0.15375 0  1.57794966442982 0.3540357145964566 0  0.9483181579620558 0.1214693369582054 0  0.0496154796471391 0.333125 0  1.508991196088596 0.1421783375065625 0  0.09776612425612034 0.2204896805326566 0  1.50436820029908 0.06143401634903343 0  1.223857000523521 0.0823554862453532 0  0.2531953886959507 0.3582003209055908 0  1.153316824384777 0.1289850171317837 0  2.148922302309752 0.1258841779285271 0  1.621993280276081 0.2841214267927899 0  1.550118654119087 0.2461998729100966 0  1.327182649291491 0.1216967252533594 0  1.753125 0.04556020050186112 0  1.271875 0.04556020050186116 0  0.9824282234771738 0.05051969257615314 0  1.039510847866381 0.05683351822678641 0  1.94956388244759 0.1180512551534177 0  1.949997712993411 0.04965831614304109 0  1.771961817615021 0.1530278789497521 0  1.909246823951428 0.2812757146784527 0  1.101974016627944 0.2038045618205013 0  0.7906250000000001 0.0444674049654372 0  1.948575539857022 0.2445328248721197 0  1.697271520964565 0.1233917627620729 0  1.065625 0.3689344961371042 0  1.085849084308977 0.3170853572226867 0  0.9840604787624379 0.3582077516409966 0  1.577403511714593 0.05463601888079143 0  0.05622663515370135 0.05493816910862376 0  0.8762396958822678 0.3392249777398821 0  1.751571320346033 0.3651102912045228 0  1.055327852410105 0.111864799513911 0  0.1583785085108421 0.2994699345738728 0  0.1455283439499995 0.3542795598723423 0  2.2 0.35875 0  0.225705107073232 0.05084786997482401 0  0.1455852234589313 0.1166494778469164 0  1.466879772203159 0.3611261772912453 0  1.990280163552011 0.3564754268533217 0  1.17471064520912 0.2990917256188288 0  0.7221925551074015 0.1739659241003985 0  0 0.25625 0  2.2 0.25625 0  2.2 0.05125 0  0 0.15375 0  1.853978576207987 0.35875 0  0.21965520498276 0.1015543880164422 0  1.515638456102889 0.2882700110184686 0  0.09048297387599738 0.3637717362208066 0  2.150453692751374 0.2387066338105111 0  1.323782677156475 0.04897634338873398 0  1.409375 0.03715320121951221 0  1.406484531114799 0.1087852750766809 0  1.134375 0.03715320121951218 0  1.627401732573545 0.04552157221025036 0  0.446875 0.3713289093361426 0  2.045405893604797 0.1105340662939892 0  1.255408269734577 0.1577307500159216 0  2.028125 0.03707597992059326 0  0.04420832937638274 0.128125 0  0.5817551710628505 0.3702615006034757 0  0.1197849154434487 0.2663398672460083 0  1.248258025468107 0.2565907092181813 0  0.1300647302703173 0.0508462728378621 0  0.7738123537510222 0.2761231499240648 0  1.203125 0.0366132337404304 0  0.5444207041612499 0.111205399508622 0  0.8016457771828226 0.1964238426015905 0  2.072662025974815 0.2975086504196739 0  0.4019040438866802 0.2103993403217561 0  0.4677372330974851 0.04827477407630658 0  0.8677218578847617 0.1432970430140788 0  1.058011122005847 0.2758866204059919 0  0.4429405887974043 0.2746184809910084 0  0.5843750000000001 0.03726989681835222 0  0.6318596133730142 0.1128692182767254 0  0.4862628454464408 0.2957029785303028 0  0.7805186758662764 0.3673578380827891 0  1.887722846421017 0.1760882698830035 0  0.3498893058880703 0.256189258793856 0  1.472640588990488 0.1118278026240017 0  1.865937103925594 0.2604137786483804 0
[...]
<PointData  Scalars="f_43"> 
<DataArray  type="Float64"  Name="f_43"  format="ascii">4.1982443231165006e-01  4.4976398756815233e-01  5.1816873515107082e-10  8.1858040912235129e-10  -3.6303207628223744e-01  -3.2791494151023148e-01  -3.5213221850359894e-01  -5.1986351561809852e-01  -9.3689578585447908e-01  8.5932811916055429e-01  1.9934613682767506e+00  3.9774089012407027e-01  -1.1594195010929995e+00  -5.0923607011424066e-01  -2.9272344702831704e-01  -2.5778807135895265e-01  -2.8022338480313369e-01  -4.4197094236192402e-01  -1.3043560885301883e-01  -1.1278641506397052e-01  -2.9826648821152540e-01  -1.4609561696157433e-01  -7.0659049587854988e-02  -5.4574652076548313e-01  -2.0173344034525326e-02  7.6171002189183057e-01  -2.1326350438572318e-02  -1.9582317052977094e-01  -2.0774033804967590e-01  -3.2249405795293645e-03  1.7254565533445242e-02  4.7738972695977606e-02  5.7445552661808619e-02  4.1766078173167138e-02  3.0742162863977660e-02  2.8458077707416055e-02  2.9852737308109820e-02  -7.5663611584808652e-02  -1.0608437876889486e-01  3.9965220607523215e-02  4.4653141756651901e-02  -1.8596129193890847e-03  1.7047020698362180e-02  1.3833098134882050e-09  -4.8981765283899997e-02  2.2158694407080928e-02  1.4425097281166196e-02  -1.5417803679496780e-01  1.4478204436067713e-02  3.6160525032085456e-10  -1.4773038723728468e-01  4.7994606492105310e-02  2.0335698308437639e-02  3.2001134246913428e-02  4.3997017565871689e-02  4.3930241093896025e-02  -2.6601902179162366e-02  -6.5357059831652201e-02  -1.9268950564853998e-01  3.6639877269799864e-01  3.4465013782006870e-01  -1.8436358241341366e-01  1.6790647049101288e-02  -6.1459839290247406e-03  2.2962820755131251e-02  5.1408698105901492e-02  1.2876482188469495e-02  4.7273407785302979e-02  2.4989559165196212e-02  -2.6303382221641830e-01  3.2383476704665008e-02  1.1372864028284366e-02  3.8708809172248740e-02  -3.7165796678553478e-02  -3.2851465212780921e-02  -2.9869356732402441e-01  5.1638305594301037e-01  5.4977288725595419e-01  -1.8759048656211888e-01  -1.2127570161736563e-01  -2.0633485182141537e-01  1.0621711873519228e-02  2.6750051351639916e-04  2.1568595325999730e-02  4.3206039982438604e-02  4.1007448254644557e-02  -5.0643020951394273e-02  -9.0079791102167572e-02  2.5802874932961944e-02  4.8153908476035095e-02  3.3308781546185960e-02  -9.0030395817447499e-10  2.1296405740680605e-02  4.0676714410385402e-02  2.4116003054251250e-02  -2.0541365578326479e-02  -3.6138147501427698e-01  -2.1302352508481986e-01  1.9202272759055413e-04  3.2983920861124214e-02  4.5993027081935001e-01  4.8879647360224272e-02  1.6382831212751570e-02  1.4838384079877889e-01  4.0552365133435922e-02  -2.0890943624912764e-01  -2.2555790075689419e-01  4.8829459684459997e-01  -4.3643870001634090e-02  7.2632563386152670e-03  8.3936891793933866e-03  2.5100735231924003e-02  1.9402298864028397e-01  4.0406624135344030e-02  -2.0333382173539666e-01  -2.1126145620389827e-01  3.8820246265937816e-02  -2.3373775414372111e-01  5.1538093182193552e-02  -1.5322763141370271e-01  9.4140677341980322e-03  1.6900302350424386e-02  -1.6606838507771035e-01  -6.4961746206475088e-02  -2.1606710051869873e-01  2.1066102364038247e-01  8.9408527168726437e-01  7.1688770467964247e-01  -1.8487056892431747e-01  2.2853726418284447e-02  4.4229718309065406e-02  4.3439016158924579e-02  4.8547719221404426e-02  1.4108085429222572e-02  -1.8046989576114180e-02  3.2708891460279485e-02  5.6450686423256236e-02  -1.8959461505249225e-01  1.5264465481592085e-02  4.9434757246044438e-02  -1.2359875887052259e-02  4.0767020738336268e-01  4.3199195333535606e-01  4.3706064536037828e-02  4.2993480280703843e-02  -5.4425588757992631e-02  3.9942711880691054e-02  3.5711090614911283e-02  2.8274089433259746e-02  4.0084057650578160e-02  3.8866651144878771e-02  7.1168570183556866e-03  -1.0679762262592869e-01  -1.3260542690172170e-01  -6.6023263408710495e-02  -1.3980448232840820e-01  -1.1294346264199363e-01  1.9440809908072909e-01  4.3542869184079408e-01  -1.4930743241499636e-02  -5.2653175074429064e-02  -1.7538568267086888e-01  5.2915618136534642e-02  2.1478679569416501e-02  2.1657096329753239e-02  -3.5782818780126779e-01  2.4155971156153318e-02  -2.5042022053745664e-03  5.0376209955828762e-02  -2.2318656210158605e-01  -2.5334515880397157e-01  -1.5086936945761625e-01  1.1277718193026611e-02  6.8269697770459358e-03  4.7517710366544792e-02  4.7677919552540247e-03  3.5087998646852317e-02  7.5123684220641780e-03  1.4816890840303135e-02  1.9816243370684179e-02  2.7693344784367829e-02  3.1585196336030082e-02  1.3770794472125666e-02  -6.3471714285408834e-02  2.3658173762748865e-02  -3.5478755954342928e-01  -6.4952341918616929e-02  -1.9053526502888850e-02  -6.7233470806803072e-03  -8.6673223447624986e-02  5.3197456996666587e-02  -1.7463089256770192e-01  -8.8959354344240432e-02  4.9248320162811103e-02  -1.4156191635617374e-01  -1.8568230047899337e-01  2.2279352573027794e-02  -3.5555519243888450e-01  -3.6949735597913919e-01  1.7536851397490026e-02  4.3904095441098051e-02  4.8789118611371862e-02  1.8251676727348686e-02  -4.1340083727919127e-02  4.6454985786386391e-02  4.2487490221832847e-02  2.5973630970000515e-02  3.2249075781391065e-02  4.6270334992068407e-01  -9.2257028716205058e-02  -1.9031268994622233e-01  -1.8446481859879769e-02  -8.6411105225712909e-02  -1.4057879620240554e-01  1.8472643511835196e-02  -2.3960135572424612e-01  1.7042473816335064e-02  -1.6103267792410081e-01  4.3284910969080902e-02  3.8085773359172001e-02  -1.3567734686973831e-01  -2.6275857152189352e-01  3.8829661215921421e-02  5.7387815833893786e-03  -6.0889685400138536e-10  4.1703172588678131e-02  3.7626933476584282e-03  4.5540407689009327e-01  3.8340956438827629e-02  1.1139337968135350e+00  2.5707005873987335e-02  6.0346798999621832e-03  2.7687608796630347e-02  -5.4311544325043983e-03  5.4504411653041049e-03  4.2303006977707246e-02  3.7141755477618214e-02  3.5449777558962073e-02  4.8599341176234982e-02  3.3835229843147983e-02  -1.4393851717816325e-02  -7.9705797738310585e-03  2.6362276901797117e-02  2.5916614122736933e-02  4.4933657236458813e-02  3.1943642939024394e-02  1.5282567754652291e-02  -1.1925305858633835e-01  2.7312644850474872e-02  5.1210363997482404e-02  -4.0442994533350804e-02  -2.1670629106893134e-02  -6.5265836097684327e-02  4.7492838000437333e-02  4.5587243981808517e-01  -5.6635842167624288e-02  5.1670229470661411e-02  -3.2840969321302482e-03  2.2790360040568361e-01  3.1904982910933150e-01  -1.1731667527301024e-09  9.5656988101298190e-02  3.3419649818244695e-01  4.2633789050709359e-02  2.2133155048497666e-02  1.7132850279098902e-02  -1.3995673829921854e-01  6.6754971148568587e-01  3.6160525032085456e-10  -3.0189391603344786e-10  6.9349306059576454e-01  3.9243024811777355e-02  -1.4358556550763393e-01  4.1766864842616831e-02  3.9903501336530267e-01  5.2231839945060627e-03  4.9295769272866045e-02  3.3601359363305862e-02  2.8932430485511640e-02  -2.3942339867115942e-02  5.6791329665598883e-02  -2.0146205749075977e-01  1.6310455995657662e-02  3.2497315881272922e-02  1.8006747900346752e-02  6.3664987518693139e-01  -2.0015809389606901e-01  6.6346449492211590e-01  7.1850622491303993e-03  3.7196582494212227e-01  -4.3687578402719945e-02  -4.1741873114191459e-03  -2.6799737935999879e-01  -3.0154530475039399e-02  1.3325041382838586e-02  -3.4411076755432296e-01  -2.0182878831076570e-01  -6.8355332620598317e-04  -5.3686726415619439e-03  -2.2850225781564565e-01  -1.8628827364269362e-01  -2.0706427388960477e-01  -2.3296008711040544e-01  -8.9586211009181502e-02  3.3877772669915054e-02  -3.6602500560030071e-01  2.5604807625485181e-02  3.7085625912462131e-02  1.6853342006776469e-02  3.3219560551659609e-02  -1.3250550585010090e-01  2.8479145933115201e-02  -1.2682182438229850e-01  -1.7141629645872597e-01  -1.1677158797563642e-01  6.1700292221865847e-03  -2.2122743145756915e-01  -1.9463212438066144e-01  4.9492961198089921e-02  -3.0494495873867383e-01  -2.5042035958121373e-01  4.6466023883681443e-02  1.0049472973844249e-02  2.1920817116804530e-02  -4.0180519007620194e-02  1.8056057238343429e-02  -3.4996545039962479e-01  -3.6286533535982890e-01  5.1308254496615892e-02  -3.6669405788039738e-01  9.0138381219199259e-01  4.4623543365218281e-02  8.3686110927957047e-01  2.2472468395768733e-02  -1.3307164394785022e-02  -4.6813959857509933e-02  3.9205012020996251e-03  1.0716612602904416e-02  1.2953298354367529e-02  -5.1802852784845595e-02  -2.0729509319951430e-02  4.5088519159674122e-02  -1.6131383159795093e-01  -2.8764794011323580e-01  4.3008125378437907e-02  -6.7985389377697700e-02  2.0446622412747639e-02  3.6100290840518197e-02  1.2332561721340620e-02  2.7063387107958064e-02  4.7311689139972003e-02  -2.1179522116072388e-01  -1.9714904095366756e-01  4.3566483997649466e-02  5.6192077621539174e-02  5.4474869580054701e-02  4.2882971477399816e-03  4.1950890864004284e-03  4.1733269380226179e-01  -3.0756719686177009e-01  -4.1586035412253093e-02  4.3423213414466880e-02  4.2584877275439074e-02  3.4854154716351643e-02  -1.0164294937038799e-01  4.0459868295392810e-02  2.7234085954707079e-02  -6.6629824755007588e-02  2.3087983200266914e-02  4.3639310960590906e-02  5.1320760530243675e-02  2.9012833660905984e-01  4.7923134446784296e-02  -2.0187476074172842e-01  -1.9863572074017954e-01  -1.6331234497702980e-02  2.7961569622296611e-01  1.5216471753855409e-02  -5.7352876000761291e-02  4.1840801898541655e-02  -2.6057057400443212e-01  2.3422799521039372e-02  1.1243536333725931e-02  2.3744539987994487e-02  3.8627835167331669e-02  -2.8368559549969868e-01  -1.5010654251638578e-01  5.9159094556068053e-03  -2.0085748017110997e-02  2.5945728681472494e-02  -1.2454139689381230e-03  2.8049013260638817e-02  4.1688514405136519e-03  4.1139832302595225e-01  2.0796746306856333e-02  -1.5282746800554739e-01  -2.1747452251672184e-01  -1.1371270061586070e-01  2.1948012905437589e-02  -3.3894917355773135e-01  3.4234360240272474e-02  -8.7615186862145852e-02  3.5621033500760929e-02  3.2098133435301969e-02  2.8257799641818147e-02  -1.7442562113834836e-02  2.9854975739145882e-02  5.2735883638367044e-02  5.7742763880084334e-02  5.4031699481775629e-02  4.4708655122323476e-01  4.2017615498989852e-01  1.7030627965916881e-02  1.7489891977654850e-02  -6.5774959642145248e-02  -7.8057300994149953e-02  -2.5492153389887636e-02  -3.3484559562018235e-02  5.5224915388654006e-01  -2.3284048715778657e-01  6.8826148747845595e-01  -1.8190144381377926e-01  4.4900827444508289e-02  -1.2762747699181468e-01  -6.1220864350234425e-02  -2.5861927124255985e-01  3.3584014106886446e-02  7.5772778737988955e-01  -1.9084307959867200e-01  1.7582572736555262e-02  4.2814104034163629e-02  2.4983895537220607e-01  3.9929040172824386e-02  5.9267942100890170e-01  3.4307714652724967e-02  -1.4280581409725920e-01  4.7700651348967796e-02  1.7051838264920963e-02  4.8277941321969269e-02  3.4848317924282481e-02  3.3710231726182809e-02  4.5989140462074772e-02  -1.0349985657703649e-02  5.0219386549587908e-02  2.8241191738224342e-02  -1.9924266407042254e-01  2.4043218060767296e-02  -2.2011578995016259e-01  -1.6536462224219192e-01  -4.7182937848382405e-03  2.4265911810418147e-02  5.2404730271568056e-01  4.0853435016339430e-02  4.5615736073553965e-02  2.2817654558315964e-01  4.3061331063282149e-01  -6.1542618438004390e-02  4.9307854173096288e-01  4.4898585106639646e-02  -8.9787855240986134e-02  4.7940420153486887e-02  -2.0155543448079613e-01  4.3336703499606728e-02  3.9734041706833020e-02  -1.8869510980567700e-01  -6.2651690056080914e-02  1.4524944150144464e-02  1.8460569561296967e-02  4.5615633045202775e-02  9.5176385130808176e-03  -5.9537751430278431e-02  8.7671476879175782e-03  3.9033437339227447e-03  5.0238637294122514e-02  3.6817225892300735e-02  -3.4696603146600169e-01  3.3230607828776702e-02  -2.2520450606736641e-02  3.7538687864281479e-03  8.5075645191614539e-03  2.6296498423119971e-02  9.4457068104521046e-03  1.8126967294433801e-02  3.6297406182068455e-02  4.2725584977425006e-02  -8.4219442230614068e-03  -2.1510068705487337e-01  -2.0927234205235665e-01  9.2194155732537211e-02  -6.6302096376215147e-02  -1.3108074029558717e-01  -2.1176206389724853e-01  -1.8545312173585887e-01  1.3582589066702333e+00  -1.1104399743137481e-02  1.5145477339155952e-01  7.1981492271268009e-03  -4.6466496226720468e-03  2.4053751130515263e-02  2.7164286180506040e-02  2.9448511268128596e-02  6.3704363973627696e-03  2.1011376165138842e-02  8.3289242880434551e-03  1.8381910062574090e-02  -3.2786145191127430e-01  -2.0149089508377621e-01  3.7363434000915095e-02  -3.4449169803674173e-01  -2.6043250442238930e-01  1.5695994517597203e-02  -3.1130806995417992e-01  -3.6633635593030173e-01  3.5740890341925957e-02  5.0312093215650354e-02  2.2126957444461484e-02  1.8225563494309586e-02  2.5880733814927975e-02  2.4444781259672116e-02  -2.1964207436673508e-01  -1.3272694588830557e-02  2.7797628699460274e-03  2.6644780715753234e-02  -1.8032743292862346e-02  4.5997967547106125e-02  3.5871935726317769e-03  1.0986305871690865e-02  3.4056272778231617e-02  4.2905459628288317e-02  5.0944097394201193e-02  -3.8691295574142415e-02  4.8442741176664084e-02  -1.4311348421602002e-01  -4.4722859746760837e-02  -6.5541704281361857e-02  3.5831355879303729e-02  -2.1191371679663229e-02  3.4944560089271003e-03  -1.5447035448130288e-02  -2.0026341615613827e-01  -1.7296646226575343e-01  -1.5506189659152886e-01  3.8468275123959744e-01  1.0544160311881109e-01  -8.9076008147897540e-02  -1.8799012856685374e-01  -1.9931921045460324e-01  -1.2057552512806693e-01  -5.8860186437912312e-02  -1.2363061938891805e-01  -1.6638057167073766e-01  -1.6763979847559049e-01  -9.0066939049515638e-04  5.4985937237750172e-02  2.5074061458606103e-02  3.3191208345381890e-02  1.7988437781972327e-02  2.5756839538714049e-02  -1.5786412348173458e-02  5.1825722258785289e-02  -1.4832698551260506e-01  1.9944039108682747e-02  -2.0434404595803670e-02  5.0377090524012340e-03  5.6628764586999936e-03  2.4085592532925196e-02  2.7006958712465748e-03  -7.6213263346684004e-02  -5.0145335754797779e-02  -3.3261391985717698e-01  -3.4428999928368209e-01  -1.7850367894267563e-01  4.0745817775652716e-03  1.6779903778303993e-02  1.5752723850484346e-02  -5.0518178870786554e-03  3.8678013482438417e-01  1.3752061572183788e-02  4.2876134739189498e-02  4.4636195656670027e-02  -1.0146897281441965e-01  3.0241536098495583e-02  2.8310504726143459e-01  4.0714562674300014e-02  3.7681387560088236e-02  4.9458094342250715e-02  3.3989005288363176e-02  -4.8941395953233473e-04  -1.3827844999915462e-01  4.9202654867439848e-02  -7.4039426010944737e-02  3.9149812987935122e-02  4.7492459114787285e-02  1.5176275677252117e-02  -1.6637554337223773e-01  2.9840607234477384e-02  4.3404176259943139e-02  7.3192012242124593e-01  -1.8956879257502227e-01  -2.9739687023865251e-02  5.2437840134625317e-02  -2.8378457868896090e-01  -8.4622857756013692e-02  1.4586862284245081e-02  1.1943292031550581e-02  2.3730118420709351e-02  7.9571727554459815e-01  2.4027680675146573e-02  1.1739818065039473e-02  2.9976748574987874e-02  3.0625726955870614e-02  3.6295941896545253e-01  1.1843227115153013e-02  3.2314149511627049e-01  -6.5579962271087353e-02  1.6841239475916595e-02  -3.5911031872724447e-01  -3.7110788207843443e-01  4.6112540162527631e-02  -3.6194293932171751e-01  -3.2049771386048719e-02  4.2027450467984041e-02  4.8464188864629436e-02  3.9513733135975226e-02  2.4845782408050722e-02  4.0709864723580133e-03  3.3375946742045487e-03  -2.1183161360920203e-03  -1.1872069204835349e-02  4.8147970523722355e-02  -2.0735095514765420e-01  4.7790169214930789e-02  5.6629034859898522e-02  3.2016855995646312e-02  -1.0669884210332277e-01  -1.0163780903352578e-01  -7.8247307154804810e-02  -4.1181899535197686e-02  1.8749853949812750e-02  4.3000705231515238e-02  -2.5238987628052395e-01  -1.7866480372339472e-01  -2.0703921617658805e-01  4.3330064074464936e-02  5.7639745155127797e-01  4.4165263177799334e-02  -1.1326007665844092e-02  -1.1325265108353444e-01  4.4506852517542904e-02  -2.3930813260987233e-01  3.6560783457883064e-02  -3.5370635774665582e-01  -9.9762253123256289e-03  -1.5433893373296434e-01  -1.8219593871859982e-01  -2.1122740176252067e-01  2.7894133647817888e-02  2.2883872270661541e-02  4.4391131332584148e-02  4.2729478794986689e-02  2.0755627921711425e-02  -1.2116834400900733e-01  1.1175001423170092e+00  4.8959091545229025e-02  -2.2893972010686728e-02  -3.3489217178453556e-01  7.1330460051314869e-03  1.3992384234393689e-02  4.9143754680380625e-02  2.1943662763990505e-02  4.5759840309354587e-02  4.0909569332808753e-02  1.1335241494791672e-02  2.7793654467776433e-02  2.4006940048769024e-02  -3.4603317502402489e-02  -6.0836885201771988e-02  4.5016590454038585e-01  4.4842571734075792e-01  4.5238210955860746e-02  -2.8050140074262558e-01  3.1496818853086132e-02  -3.4159192028740092e-02  4.1759600291259242e-03  -3.8298538253741229e-02  2.1438114024003859e-02  1.5699288797941028e-02  5.9747455523238091e-01  -6.9454952856480345e-02  4.2345187648259279e-02  6.5609920867667870e-02  2.3910584602104179e-01  -1.2657190457147019e-01  2.3108923388050987e-02  2.6493163894724111e-02  -2.4183600790551923e-01  -2.2375697244703591e-01  -3.5638489351511937e-01  2.5213452373340321e-02  4.1386041005544813e-02  -2.5696782574520932e-01  4.3281278128447409e-01  7.4544713420857345e-01  1.0636770441284993e-02  -1.6177385051451065e-01  3.8934945083180295e-02  1.3195752378464504e-02  5.2434947191384376e-02  3.5696636866769452e-02  1.3833098134882050e-09  -2.2222368694778097e-01  4.5100821635259684e-02  3.7555431953936579e-03  -2.2857702391340912e-01  -2.1547033846436153e-01  1.4304713749440198e-02  -1.5088544109355115e-01  3.8429264360565907e-01  3.6923708643798103e-01  3.3465917064777431e-02  3.2770853845156718e-02  4.3346655105989569e-02  4.2739505564131058e-02  4.1558262210295877e-02  2.7303027713307639e-02  3.6928250974352470e-02  -1.8604638701112963e-01  3.3122616225006701e-02  4.3589733283497023e-02  -3.0480234298162365e-02  -4.0208620176699898e-02  -1.0653317323380086e-01  -2.2927388337314183e-01  3.5504270591541598e-02  -1.3346030902583061e-01  3.7471766568265633e-02  -9.0030395817447499e-10  1.5692873412785913e-02  7.2897669307446077e-03  2.4265631471803047e-02  -1.6515846580627044e-01  5.1660688821459792e-02  -2.1851045976587716e-02  -9.4217098419777240e-03  1.8906109858631753e-02  4.3424052017101882e-03  -1.1223184951932095e-02  2.0232426035387427e-02  -2.6685541418910242e-03  -9.2970002197365169e-03  -5.7398213610144544e-03  3.1236368704171544e-02  4.2840047038276485e-02  -5.3385150665396834e-02  3.8768299825553626e-01  -1.2421777764247041e-02  4.9863603701242709e-02  -8.0797753545590947e-02  6.5972350646289046e-03  7.3342851747451284e-03  3.0443983727535011e-03  -2.0527226779336447e-01  3.6182102712851251e-02  2.2473886773564350e-02  2.4025153773997564e-02  -2.2286447997397166e-01  4.3299317564718172e-02  5.0883828476553386e-02  4.5703407934770929e-02  -1.8890861737373707e-01  -2.0036598782795381e-01  4.9993241446480208e-02  -2.2770714005757839e-01  -2.6894817440000174e-01  -2.5723377900701977e-01  2.5584077268089823e-03  -1.3753397433677213e-02  2.4141403863000080e-02  -4.2957619509385114e-01  2.3465622902149211e-02  -1.4605096994927988e-01  4.0262064476306481e-02  3.1476851944251183e-01  -5.8970248211887510e-02  -2.5015145870760383e-02  -1.3215939206166841e-01  1.3833098134882050e-09  1.0721440207297541e+00  8.7287691018905700e-01  -6.1353692044696366e-02  -6.4492448799947019e-02  -1.2340495539205197e-01  4.1036013547926513e-02  4.2343951599463678e-02  -1.2007200632663462e-01  2.9417735489820511e-02  -1.9117018584864426e-01  5.1707226561049513e-01  4.6257216667696932e-01  4.6713629107812682e-01  2.7594918285632181e-02  1.1693599490951237e-02  3.9621496526248183e-02  3.8567142676402093e-02  3.7519025480455652e-02  2.3492247483586144e-02  5.2261579991976836e-01  -9.3495133503254443e-03  -3.8083892268867958e-01  5.0511067330441230e-02  4.1815708901703448e-02  4.9592161730975873e-02  2.8715003862439626e-02  2.7428024243624369e-02  -2.0612238699977803e-01  5.2184704175361661e-02  -2.180