<?xml version="1.0"?>
<VTKFile type="UnstructuredGrid"  version="0.1"  >
<UnstructuredGrid>
<Piece  NumberOfPoints="2426" NumberOfCells="4534">
<Points>
<DataArray  type="Float64"  NumberOfComponents="3"  format="ascii">0 0.41 0  0 0 0  2.2 0 0  2.2 0.41 0  0.2404508497187474 0.2293892626146237 0  0.25 0.2 0  0.2404508497187474 0.1706107373853764 0  0.2154508497187474 0.1524471741852423 0  0.1845491502812526 0.1524471741852423 0  0.1595491502812526 0.1706107373853764 0  0.15 0.2 0  0.1595491502812526 0.2293892626146237 0  0.1845491502812527 0.2475528258147577 0  0.2154508497187474 0.2475528258147577 0  0.5404508497187474 0.2293892626146237 0  0.55 0.2 0  0.5404508497187474 0.1706107373853764 0  0.5154508497187473 0.1524471741852423 0  0.4845491502812526 0.1524471741852423 0  0.4595491502812526 0.1706107373853764 0  0.45 0.2 0  0.4595491502812526 0.2293892626146237 0  0.4845491502812526 0.2475528258147577 0  0.5154508497187473 0.2475528258147577 0  1.1 0 0  0 0.205 0  1.1 0.41 0  0.55 0 0  0.55 0.41 0  0.275 0 0  0.275 0.41 0  1.65 0.41 0  1.65 0 0  1.375 0 0  1.375 0.41 0  1.925 0 0  1.925 0.41 0  0.8250000000000001 0.41 0  0.8250000000000001 0 0  1.5125 0.205 0  1.7875 0.205 0  0.9625000000000001 0.205 0  1.2375 0.205 0  2.2 0.205 0  0.7560964076246335 0.2151713709677419 0  1.99375 0.2152743902439024 0  2.0625 0 0  0.6875 0 0  2.0625 0.41 0  2.2 0.3075 0  0.6875 0.41 0  1.7875 0.41 0  1.375 0.1486128048780488 0  1.5125 0 0  1.7875 0 0  1.5125 0.41 0  0.9625000000000001 0 0  0.9625000000000001 0.41 0  0.4125 0 0  0.1375 0 0  0.1375 0.41 0  0.4125 0.41 0  1.2375 0 0  1.1 0.1486128048780487 0  1.2375 0.41 0  1.65 0.1486128048780487 0  1.126715909090909 0.2793064024390244 0  1.676715909090909 0.2793064024390244 0  1.348284090909091 0.2793064024390244 0  0.34375 0.3032389320646208 0  1.894702181800738 0.1282910975492754 0  2.092797818199262 0.1282910975492754 0  1.85625 0.3075 0  0.8630851210521902 0.286932093388664 0  0.89375 0.1025 0  0.35 0.1090282786671641 0  0 0.3075 0  0 0.1025 0  0.6526217841291382 0.288229645480046 0  0.7562500000000001 0.09660248895515888 0  0.6568633732316684 0.1557582854763441 0  2.099172119769978 0.25625 0  1.002356446954348 0.1010393851523063 0  1.99375 0.08395950269330846 0  1.459960956013612 0.3075 0  1.569025960719943 0.2986889805672169 0  1.03125 0.3278689922742084 0  0.75625 0.3247156761655783 0  1.959375 0.3126371951219512 0  1.749222215368287 0.1025 0  1.275777784631713 0.1025 0  2.2 0.1025 0  1.225938124459196 0.3075 0  1.550777784631713 0.1025 0  1.44375 0.07430640243902442 0  1.16875 0.07430640243902437 0  0.3528655045338512 0.2063263890916129 0  0.5890337614812103 0.08775733857679162 0  0.8504912436891263 0.190072835691683 0  1.899250267340833 0.2229966846119207 0  0.1020898364287272 0.3140258291809757 0  1.766482954545455 0.2934032012195123 0  1.051658316544432 0.2265720188842194 0  0.2 0.3400647632937836 0  1.421109702350723 0.2261157654379721 0  0.4812500000000001 0.41 0  0.4324401666997539 0.3216425986889796 0  0.098916018031319 0.09171660955420841 0  0.9508742791313441 0.2921736960864468 0  2.13125 0 0  2.118919042110979 0.3422084711244843 0  1.30625 0.41 0  0.20625 0 0  1.597888256393107 0.2173787389261347 0  0.4812500000000001 0 0  0.4324082967851086 0.08384041677422771 0  1.829299675393195 0.07400700849299596 0  0.568219932524165 0.3212274660843853 0  1.71875 0.41 0  0.268005226542646 0.08512186835670006 0  1.16875 0.41 0  2.038220665644273 0.332420740103091 0  0.6678017527842831 0.07701763866051195 0  0.89375 0.41 0  0.5111435174287687 0.07335351331957608 0  0.176193934632343 0.0734896648625108 0  0.07390688010811153 0.1697064032433452 0  0.05452951551825875 0.25625 0  0.61875 0.41 0  1.452769549894695 0.1548122580621249 0  1.369219062229598 0.07430640243902442 0  1.30625 0 0  1.720943423819132 0.1714577452753128 0  1.157188124459196 0.205 0  1.094219062229598 0.07430640243902437 0  1.304056576180868 0.1714577452753128 0  1.67579304192913 0.07430640243902437 0  0.2672907219039591 0.3037570723459566 0  1.209670467133757 0.1362100266964769 0  1.58125 0 0  1.03125 0 0  0.06875000000000001 0.41 0  0 0.35875 0  1.58125 0.41 0  1.631724228912893 0.3381867502687533 0  0.8240147050827157 0.1225233169495944 0  1.825608881788174 0.14499488549201 0  1.85625 0 0  1.44375 0 0  1.44375 0.41 0  1.85625 0.41 0  2.13125 0.41 0  0.7562500000000001 0.41 0  0.7562500000000001 0 0  0.89375 0 0  0.34375 0 0  0.34375 0.41 0  0.20625 0.41 0  0.06875000000000001 0 0  1.16875 0 0  1.03125 0.41 0  0.61875 0 0  1.71875 0 0  1.99375 0 0  1.99375 0.41 0  0.3972301426712326 0.2593842555611471 0  1.340625 0.3489494290853124 0  1.134375 0.3489494290853123 0  1.700180620188976 0.3438659752031281 0  0.5003922072260507 0.341765274319271 0  0.6212513815748759 0.2209216137134851 0  0.6885607720119526 0.215393731583638 0  1.033412357328477 0.1612902025713047 0  2.135782184673599 0.07126652247502523 0  1.668441847249787 0.2129203728327609 0  1.295782514339747 0.2378437748815763 0  1.409375 0.3520314716057996 0  2.129248544730567 0.1906135162504124 0  2.060771381434487 0.1989445750470348 0  2.013252586573865 0.1496169464686054 0  1.942766402200229 0.1734448904596831 0  1.895522487186454 0.06076163953489683 0  2.069553871656643 0.06605731020975725 0  0.9281250000000001 0.3539050257418612 0  1.274680914880868 0.3520219391081363 0  0.3030138498135347 0.2488370856812789 0  0.8223773249563684 0.341761430177996 0  0.9018164060227267 0.2326477848736739 0  0.8143027982392851 0.2440265179987191 0  0.7225087161029304 0.2699907246386231 0  1.614713220494657 0.09473434380863296 0  0.378125 0.3566194660323104 0  0.309375 0.3566194660323104 0  1.72990325744076 0.2380068107952482 0  0.6915936999299305 0.3429472631234433 0  0.6268087624932918 0.3466455500035671 0  1.356580098625191 0.2120393231351682 0  0.3060160055995138 0.1590148921620778 0  0.3954648733249218 0.156380553890791 0  2.034370752044885 0.2668681600792073 0  1.51768709249349 0.3426260931494756 0  1.561883724969884 0.1650446847858835 0  1.197344062229598 0.2523725417393646 0  0.9281250000000001 0.05124999999999999 0  1.804085235518364 0.3468178408964637 0  1.817887819205233 0.2589243285818559 0  0.9107805776841645 0.1653834539923287 0  1.905897727272727 0.3485060975609756 0  0 0.05125 0  0.844212276491354 0.0614201194265309 0  0.378125 0.05244637078450034 0  1.008571329007178 0.2705955969954818 0  0.7724048032149464 0.1559079561351474 0  0.7203054377831548 0.04941826955193545 0  1.192836486056382 0.3562350748565544 0  0.5967108020713719 0.1479294686523888 0  1.28257088594801 0.2944411014911587 0  0.7041890234548132 0.1222025174424443 0  1.474860187679412 0.2504218616229368 0  1.406767003493824 0.2829282258560709 0  0.3201325899091991 0.05890121548989159 0  0.5979220912872258 0.2727591995766724 0  1.845656689180403 0.1998310418452388 0  2.144958525570388 0.2909790873294231 0  2.2 0.15375 0  1.57794966442982 0.3540357145964566 0  0.9483181579620558 0.1214693369582054 0  0.0496154796471391 0.333125 0  1.508991196088596 0.1421783375065625 0  0.09776612425612034 0.2204896805326566 0  1.50436820029908 0.06143401634903343 0  1.223857000523521 0.0823554862453532 0  0.2531953886959507 0.3582003209055908 0  1.153316824384777 0.1289850171317837 0  2.148922302309752 0.1258841779285271 0  1.621993280276081 0.2841214267927899 0  1.550118654119087 0.2461998729100966 0  1.327182649291491 0.1216967252533594 0  1.753125 0.04556020050186112 0  1.271875 0.04556020050186116 0  0.9824282234771738 0.05051969257615314 0  1.039510847866381 0.05683351822678641 0  1.94956388244759 0.1180512551534177 0  1.949997712993411 0.04965831614304109 0  1.771961817615021 0.1530278789497521 0  1.909246823951428 0.2812757146784527 0  1.101974016627944 0.2038045618205013 0  0.7906250000000001 0.0444674049654372 0  1.948575539857022 0.2445328248721197 0  1.697271520964565 0.1233917627620729 0  1.065625 0.3689344961371042 0  1.085849084308977 0.3170853572226867 0  0.9840604787624379 0.3582077516409966 0  1.577403511714593 0.05463601888079143 0  0.05622663515370135 0.05493816910862376 0  0.8762396958822678 0.3392249777398821 0  1.751571320346033 0.3651102912045228 0  1.055327852410105 0.111864799513911 0  0.1583785085108421 0.2994699345738728 0  0.1455283439499995 0.3542795598723423 0  2.2 0.35875 0  0.225705107073232 0.05084786997482401 0  0.1455852234589313 0.1166494778469164 0  1.466879772203159 0.3611261772912453 0  1.990280163552011 0.3564754268533217 0  1.17471064520912 0.2990917256188288 0  0.7221925551074015 0.1739659241003985 0  0 0.25625 0  2.2 0.25625 0  2.2 0.05125 0  0 0.15375 0  1.853978576207987 0.35875 0  0.21965520498276 0.1015543880164422 0  1.515638456102889 0.2882700110184686 0  0.09048297387599738 0.3637717362208066 0  2.150453692751374 0.2387066338105111 0  1.323782677156475 0.04897634338873398 0  1.409375 0.03715320121951221 0  1.406484531114799 0.1087852750766809 0  1.134375 0.03715320121951218 0  1.627401732573545 0.04552157221025036 0  0.446875 0.3713289093361426 0  2.045405893604797 0.1105340662939892 0  1.255408269734577 0.1577307500159216 0  2.028125 0.03707597992059326 0  0.04420832937638274 0.128125 0  0.5817551710628505 0.3702615006034757 0  0.1197849154434487 0.2663398672460083 0  1.248258025468107 0.2565907092181813 0  0.1300647302703173 0.0508462728378621 0  0.7738123537510222 0.2761231499240648 0  1.203125 0.0366132337404304 0  0.5444207041612499 0.111205399508622 0  0.8016457771828226 0.1964238426015905 0  2.072662025974815 0.2975086504196739 0  0.4019040438866802 0.2103993403217561 0  0.4677372330974851 0.04827477407630658 0  0.8677218578847617 0.1432970430140788 0  1.058011122005847 0.2758866204059919 0  0.4429405887974043 0.2746184809910084 0  0.5843750000000001 0.03726989681835222 0  0.6318596133730142 0.1128692182767254 0  0.4862628454464408 0.2957029785303028 0  0.7805186758662764 0.3673578380827891 0  1.887722846421017 0.1760882698830035 0  0.3498893058880703 0.256189258793856 0  1.472640588990488 0.1118278026240017 0  1.865937103925594 0.2604137786483804 0
[...]
<PointData  Scalars="f_43"> 
<DataArray  type="Float64"  Name="f_43"  format="ascii">4.2222468167251609e-01  4.5684735895110645e-01  7.8853974935133755e-10  4.3636093597694751e-10  -3.5685618877874303e-01  -3.1539797514691847e-01  -3.3576022752867513e-01  -5.0161640720072276e-01  -9.1396354900076282e-01  8.7340880634086449e-01  1.9988916509849506e+00  3.9717857526587941e-01  -1.1543418836159391e+00  -4.9812644946543899e-01  -2.5503828062129430e-01  -2.3555203065839314e-01  -2.7986458912664314e-01  -4.5170121205177682e-01  -1.2622053322999713e-01  -1.3540645268508272e-01  -3.3465014769856793e-01  -1.5301483176277136e-01  -2.4243599402216209e-02  -4.8509955790041859e-01  9.2669022910383675e-02  7.6693405475354637e-01  8.5109530326822641e-02  -2.0558708937490339e-01  -1.9034156591943974e-01  -1.7785271171918782e-03  1.5019465239151106e-02  7.0447119016605525e-02  7.0472488203296851e-02  1.0680996178741159e-01  1.0675250010558922e-01  3.5062615645917866e-02  3.5179494689972765e-02  -6.0993507537825599e-02  -5.9902557418484756e-02  8.7958208672048357e-02  5.2760184111433781e-02  6.3366674545971183e-02  1.1650261931920426e-01  7.7593734964781182e-10  -2.0023501426036934e-02  2.6377942262487245e-02  1.7361046623438372e-02  -1.6230540610840094e-01  1.7909029741937074e-02  -1.1615905885358649e-10  -1.4571291537054976e-01  5.2914679725653190e-02  1.0543820538923551e-01  8.8039104713358185e-02  5.2864061000036634e-02  8.8381658885927791e-02  2.2002059046203275e-02  1.0969183935730919e-02  -2.0056357330769470e-01  3.7312220110406097e-01  3.4705422751913784e-01  -1.8408555526944692e-01  1.2536452405976151e-01  1.0840631639446784e-01  1.2327524863074799e-01  7.0312755978803321e-02  1.0862074831195051e-01  6.6898942975416750e-02  1.0876331542047415e-01  -2.9118493586031957e-01  3.9033220301403077e-02  1.3677605631963715e-02  4.4009566722558208e-02  -9.3131028887545181e-03  5.2346630047008973e-03  -3.2576828524282470e-01  5.1921744506438461e-01  5.5678590747769052e-01  -1.7214397205270687e-01  -8.8517081097255673e-02  -1.7804952571382215e-01  1.2882000926333646e-02  5.7716344163753930e-02  2.6397326100075280e-02  9.4832899320377195e-02  8.0712449653479693e-02  4.6951411920188132e-02  -9.2242599421667834e-02  3.0877203882421246e-02  5.7594962795323543e-02  1.1791176325950932e-01  -8.2347195963922920e-10  1.1871565738977669e-01  8.3062308726141718e-02  9.7007357169974676e-02  1.1603406760429720e-01  -4.0981780610581131e-01  -2.1941081496050319e-01  1.7190130186027153e-04  3.8465489210602687e-02  4.6256658757795577e-01  5.5444944679893894e-02  1.0736216591669821e-01  1.4943270732403341e-01  9.9526843724617411e-02  -1.9810975023612762e-01  -2.2913479392480757e-01  4.9574550278998875e-01  2.5344375976548497e-02  8.6622199094715489e-03  1.0275764367055230e-02  1.1693975280705583e-01  1.9941276887999276e-01  7.7003980915545334e-02  -2.1081308718032873e-01  -2.3763334933697733e-01  4.7432504493069669e-02  -2.0808387100220432e-01  6.1379797398939499e-02  -1.4829727549576016e-01  1.1565448097381313e-01  2.0732677822075600e-02  -1.6611010841281174e-01  -1.6593002114447714e-02  -2.2415636779561313e-01  2.1784031190700051e-01  9.0064812524406335e-01  7.2066552343000478e-01  -1.7109348192062648e-01  9.5626842893370922e-02  1.0734127305036074e-01  1.1771266581103684e-01  6.1226565104280567e-02  1.1740844985555701e-01  8.9877062319191264e-02  1.1275948097290342e-01  6.6978430262000468e-02  -1.9407928775933397e-01  1.1783951352989248e-01  7.9175342670394847e-02  5.1969050998730004e-02  4.1010685007018316e-01  4.3442721936888673e-01  7.9013401603348174e-02  7.2694773178668237e-02  -2.7726606012601289e-02  4.7867868122617473e-02  4.3790689963945861e-02  9.7053386000592073e-02  9.7038472112311522e-02  4.3883737211236604e-02  8.7411215434298421e-03  -1.1063491438652208e-01  -1.1766665865846451e-01  -9.6078271875898701e-03  -1.4507063481075955e-01  -1.1728697795795162e-01  1.9553201367553194e-01  4.4245243698818593e-01  1.1982655832973139e-01  4.1366844535851391e-02  -1.8842286109878201e-01  6.1514430176961725e-02  2.6321108827391797e-02  2.6167898950503352e-02  -4.0678626969502119e-01  1.1159638057357890e-01  1.0235119664115649e-01  6.3850649810255955e-02  -2.0581853165803271e-01  -2.2449140921418592e-01  -1.2029586376758565e-01  1.0334113116708235e-01  8.1748816322375264e-03  6.7963730808144912e-02  1.1310770574490550e-01  1.0176327577534333e-01  9.0458661086032961e-03  1.7804936886643915e-02  2.3853581450990112e-02  3.2891144532653391e-02  3.8881180877201396e-02  1.6594014848680234e-02  2.4723646080892785e-03  1.2016471255095791e-01  -3.7464864154420269e-01  -5.4388016129158619e-02  8.6172276426705295e-03  8.5176423565177534e-03  -7.7334893398566043e-02  7.4824889484831625e-02  -1.8204308328052593e-01  -9.5790381704418226e-02  6.0110709098695557e-02  -1.3940308353310132e-01  -1.7010249894661086e-01  1.0716132418574618e-01  -3.3609242090104502e-01  -4.6813326019583218e-01  2.1185942846370882e-02  8.7367049886058826e-02  8.1633687849035588e-02  1.1696535354089339e-01  1.1335969235542465e-02  5.0677272495037874e-02  4.8873021073490043e-02  2.7958074613608563e-02  3.7687595723695115e-02  4.6980012594530290e-01  -3.8767381664897564e-02  -2.0304779515423416e-01  6.6548400321768716e-02  -2.5685223768172043e-02  -1.4088262949874381e-01  1.1969851493245770e-01  -2.4856815635284205e-01  1.1585298392994370e-01  -1.0893707420984625e-01  9.2790880778494872e-02  1.0160970821649955e-01  -1.4100707871871812e-01  -2.2959717045398256e-01  4.5320744407025389e-02  7.0148258170919841e-03  -5.5706160290197068e-10  7.9535494345880045e-02  4.3061882188095861e-02  4.5794013233446967e-01  8.8415080967736287e-02  1.1185741998839749e+00  8.9064981154710995e-02  1.2187050085794744e-01  2.5674363127067001e-02  1.1337131260483292e-01  6.5275078656436385e-03  7.3923721257786637e-02  8.3131215506185560e-02  1.1162336306378047e-01  5.7094597760004577e-02  1.2225095914648156e-01  3.1122249266267658e-02  5.6311322542216796e-02  3.2035682716244594e-02  3.1941275835459790e-02  5.4724521521171528e-02  3.7213754427630502e-02  1.1634485131385501e-01  -8.7435965402759913e-02  3.2183473236589856e-02  6.4261232925724845e-02  6.0097417843428938e-02  8.1847947789663561e-02  1.9286579611785343e-02  7.9543264555009097e-02  4.6298505739883927e-01  -1.8158869418765496e-02  5.7294192492703927e-02  8.5537582639530624e-02  2.3052861287828166e-01  3.2124608032993357e-01  -3.2366699332019612e-09  1.0050656311606523e-01  3.4359023113266596e-01  9.3984487972008479e-02  2.6940357414750822e-02  1.1467010009194661e-01  -6.0335887951889572e-02  6.7138054446628159e-01  -1.1615905885358649e-10  -4.6733337792122485e-10  6.9993827243837692e-01  4.4312749642823474e-02  -1.3404573787700766e-01  8.7581643235110473e-02  4.0144166805486869e-01  6.3295103173687832e-03  1.1483645059764447e-01  1.0174817994128706e-01  1.0184762515298741e-01  1.0699139565950634e-01  7.3206240058117378e-02  -1.9595809287354665e-01  1.9718367437776850e-02  1.1637386099581215e-01  2.1913414644269900e-02  6.4360645203968492e-01  -1.8143891305923968e-01  6.6652196711031941e-01  1.1623059349750856e-01  3.7891284776186307e-01  -3.2077401546833084e-02  1.2467110637136296e-01  -2.7604304333881519e-01  -3.2638171185420737e-03  1.6282032734292452e-02  -3.9921247193442949e-01  -2.1054445360955634e-01  -3.0709943977683309e-03  8.8531224719881729e-02  -2.3557267284051325e-01  -1.9742527663999598e-01  -1.9858004676701238e-01  -2.0617136533745345e-01  -9.3067717487084201e-02  3.9940791455316857e-02  -4.1829741547996319e-01  9.3106591463833183e-02  4.2735736427310350e-02  7.9182638177019829e-02  9.4146013780833052e-02  -1.3042746207696299e-01  1.0591797037039483e-01  -1.2977308196486331e-01  -1.8417002218112752e-01  -1.2306605662725756e-01  9.5390031624259644e-02  -2.7650014856602551e-01  -2.1137106003439129e-01  6.1098302713412746e-02  -2.6643713782316303e-01  -2.7204234906938668e-01  5.4479813345416586e-02  1.2076849184583575e-02  1.0267879178396613e-01  -2.4768156078839546e-02  2.2126025640411866e-02  -3.5838875910209927e-01  -3.4492116101443293e-01  7.6338792585813164e-02  -4.1097768252815092e-01  9.0963571894312412e-01  4.9634965720222544e-02  8.4203102295199805e-01  2.6828607698582509e-02  4.2142623603827244e-03  3.8266768423159754e-03  4.7702833865750117e-03  1.3193199165612061e-02  1.5927120032190368e-02  3.6120565252587236e-02  4.5910381336087755e-02  7.4664005374060996e-02  -1.5409839271376949e-01  -3.4538405395323202e-01  5.1961141880734210e-02  -3.6605077006344106e-02  2.4800076229348975e-02  1.0430168572278127e-01  1.1702992039076852e-01  9.2208995134949651e-02  7.2704241490081478e-02  -1.9290216667809093e-01  -2.0693902034254938e-01  8.3489354405205968e-02  6.5780890125744021e-02  6.2869356847482391e-02  5.0742493327824269e-03  5.1226775394814864e-03  4.1974324455028283e-01  -2.9878254066128712e-01  -4.1079622234467719e-02  7.2281875716787250e-02  5.1463049054873609e-02  4.2497767598306889e-02  -6.4313843999960985e-02  8.3386269842337046e-02  3.2559969896414374e-02  -8.7185524450284942e-03  1.1137163567873212e-01  4.8370646541233575e-02  5.9271939715945042e-02  2.9643470573898756e-01  6.8603897360008853e-02  -2.1008633948294772e-01  -2.0679681597855587e-01  7.5987751193500458e-02  2.8166571381677069e-01  1.8309040452679143e-02  3.4908913165201901e-02  8.2687012457710554e-02  -2.3245452914127995e-01  1.2326444264429351e-01  1.3521693022833847e-02  9.3733232153690074e-02  7.8052339730804735e-02  -2.4479725506463851e-01  -1.3733245222166907e-01  1.1165014227465928e-01  1.0685835622154964e-01  1.1613219815477396e-01  1.1456095489009810e-01  6.1046409851394687e-02  5.0095781940969518e-03  4.1831571526475075e-01  1.1292623027679288e-01  -1.6333648258401579e-01  -1.9479626680675877e-01  -1.1066890664415978e-01  2.6939052836301360e-02  -3.3143370790060106e-01  3.9532902607116234e-02  -3.2723997559349016e-02  4.3779592983145051e-02  3.9595453737132774e-02  3.4695836504609487e-02  2.9309210604900861e-02  8.8159197845572038e-02  6.2299133988504930e-02  6.8303633800176053e-02  6.9913596570375935e-02  4.5416409641189925e-01  4.2257848118447455e-01  2.0849878903708791e-02  1.0053375013179749e-01  -4.0497336810280345e-02  -7.9773083254938870e-02  -1.3708603338159807e-02  1.2499839775420466e-02  5.5519174469335575e-01  -2.2940697324811302e-01  6.9564840602424705e-01  -1.9593555384593719e-01  5.3859216152861586e-02  -6.1898271030215946e-02  1.7039933458759496e-02  -2.4456840419783082e-01  9.0912270712172255e-02  7.6405314731779239e-01  -1.7874021672668802e-01  2.1369046146688369e-02  9.6819137628803648e-02  2.5155340491811951e-01  8.7950494843848315e-02  5.9592962935796168e-01  8.5679507260247312e-02  -1.2377525162161281e-01  5.7859841082573471e-02  1.1442992603510525e-01  5.9755867694739111e-02  1.1466240187636631e-01  1.0673460270436878e-01  1.0906253728478163e-01  9.8176391956668690e-02  6.5741127779100961e-02  1.0954946676758037e-01  -1.7216284877500748e-01  2.8907757931519010e-02  -1.9674198449841018e-01  -1.7731715331974637e-01  1.1837828802770882e-01  1.1840678231235807e-01  5.3124379614489570e-01  7.6416507910984310e-02  6.8055804839799658e-02  2.3408970191489883e-01  4.3770349215547866e-01  2.4344220969128926e-02  5.0018034199754846e-01  7.3231719311181012e-02  -4.7470999289636773e-02  7.7317067639899123e-02  -2.0851765315419676e-01  8.5758984434789839e-02  4.8434362296898716e-02  -1.5635842460056773e-01  -1.3524850157542409e-02  1.7516515640881389e-02  2.2112319211682632e-02  1.1504453089222093e-01  1.1647868563276459e-02  -1.9208867053220089e-02  1.0593440553672140e-02  4.7039189875633129e-03  5.4748787863161764e-02  8.3917157331919151e-02  -3.4711796648485915e-01  1.0185681706418363e-01  8.2849860944448225e-02  4.4762697730153173e-03  1.0191069328971401e-02  3.1097322773913371e-02  1.1591552278135320e-02  1.1736161948495623e-01  4.3686978833242497e-02  5.0871502111383256e-02  -9.0990259745860821e-03  -2.0598278339569159e-01  -1.9725094422452980e-01  9.5869805471351058e-02  -6.2379655576125889e-02  -1.1831729600528831e-01  -1.9669923608962009e-01  -1.8624356793164223e-01  1.3646231774419015e+00  4.1643082338722943e-02  1.5190344100202441e-01  1.1315072753698817e-01  1.0322444162937754e-01  1.1666603514683956e-01  1.1196526517027916e-01  1.0688828683951458e-01  1.0753003170646121e-01  9.8191840697666163e-02  1.0001484536069041e-02  1.2235302225941536e-01  -4.0401424353161880e-01  -2.0900318359969572e-01  4.4233550129685266e-02  -3.3054822047279298e-01  -2.7032291331209735e-01  1.2535520314162518e-01  -3.4600212560852078e-01  -4.2096193511975605e-01  1.0127840425839767e-01  6.6065110900345864e-02  2.6439526712289736e-02  2.1855663145239665e-02  3.0706047542159481e-02  1.2084746370382177e-01  -2.2754729747977823e-01  9.3585816888068218e-02  9.9138019492852530e-02  1.1695990790391347e-01  1.1873836238429271e-01  1.1221714612336828e-01  4.2120913618330308e-03  1.3315496507585768e-02  1.0177927164056386e-01  9.2507505440334536e-02  5.7101769089014709e-02  6.2357838691059403e-02  5.6942211538660782e-02  -1.4165199811074561e-01  8.0221904885877989e-03  -6.9360723480115752e-04  1.0210590626815205e-01  1.0812771660758339e-01  4.1679054126492919e-03  7.1985123551202707e-02  -1.9470760156741718e-01  -1.8022840021922334e-01  -1.5769426988160043e-01  3.8715008433049231e-01  1.0508323079804087e-01  -8.6592132223723417e-02  -1.9943983267558207e-01  -1.8213340045384441e-01  -8.9145029036385784e-02  -6.2816071334177853e-02  -1.2977839782104036e-01  -1.7942267033429310e-01  -1.5917464704356923e-01  1.2503379090008998e-01  7.4572326991243082e-02  3.1010504873827078e-02  1.2228117787229559e-01  2.1874206700455118e-02  3.0915750842777114e-02  3.5780021858868888e-02  6.1641029770363800e-02  -1.3989079914538263e-01  2.4210121153501504e-02  2.8246617056960150e-02  3.4066442252775261e-02  1.5925285337008391e-02  9.7490648291051127e-02  1.1566517563925793e-01  -6.8005751983331600e-02  -2.9533575574369461e-02  -3.7741657012563185e-01  -3.7745646191735133e-01  -1.1048910073393758e-01  8.3715701433395073e-02  1.0972253684452997e-01  1.1242201074552961e-01  7.5724921308123153e-02  3.9440691546946910e-01  1.1347691077282007e-01  8.4692356968212576e-02  9.0391501348288106e-02  -6.1774682980154302e-02  3.7290145454329168e-02  2.8589145431517238e-01  9.7363149312344938e-02  9.9411405850121481e-02  6.3753906583707776e-02  3.9372606518304223e-02  1.0257361496196989e-01  -1.3912985680522316e-01  6.3093189343245218e-02  -7.9735088607029950e-02  4.7466781473359775e-02  6.7989903941492971e-02  1.1154589609064018e-01  -1.5593094822826814e-01  3.5138189537627915e-02  9.0359016664412067e-02  7.3642650258869169e-01  -1.9470404597518395e-01  1.9510662772790198e-04  7.6804529665729357e-02  -3.0946073551842423e-01  -2.7069757973825961e-02  1.7619799595840622e-02  1.4358089364544975e-02  1.0649389110738901e-01  7.9939839214448138e-01  1.2079718420200687e-01  1.0865611874312603e-01  3.5251088497334424e-02  3.6517376501990273e-02  3.6534101518528933e-01  1.4548389376067101e-02  3.2966404386001874e-01  8.7710142761672043e-03  2.0540832909088504e-02  -4.2005894677458078e-01  -4.6551865229925532e-01  5.0558334164820654e-02  -4.0239876637150868e-01  1.5651307586253920e-02  4.6896125833841347e-02  6.4219650475593429e-02  4.5700356362221028e-02  3.0519892069898986e-02  1.5101977591267980e-02  4.0568060184754898e-03  9.1449942107010105e-03  4.9664094682892743e-03  8.0613963738218219e-02  -2.1440303689777790e-01  7.9086344926495356e-02  7.1246543559575423e-02  3.7409051100259862e-02  -6.0126530409891139e-02  -8.5992744029637011e-02  -7.2354510336020694e-02  -2.7685364771227031e-02  8.6853978099218743e-02  8.1315920242561582e-02  -2.5657327294133275e-01  -1.6554857304358550e-01  -1.8632331028669727e-01  7.7217713293210963e-02  5.8455943720957315e-01  8.5321554044288303e-02  -1.4679983859309402e-02  -1.1744406655989299e-01  1.1064025662221857e-01  -2.6855382827058399e-01  4.1782117702069944e-02  -3.5129955017910047e-01  1.0785306225621713e-01  -1.6109266621269555e-01  -1.8996193915332629e-01  -2.3175818127235923e-01  3.3230304820000153e-02  1.1684723043184270e-01  8.1276993082846416e-02  4.9737158376084084e-02  1.1778143111268645e-01  -9.4689957887673051e-02  1.1205299650892440e+00  5.7915753646861447e-02  -3.3841177967097592e-03  -2.9461608562510228e-01  1.1542084096301261e-01  1.1719972042112588e-01  6.8703766873060096e-02  9.2841911385928552e-02  5.1974876885980285e-02  4.6516427990341828e-02  1.3645656879009666e-02  8.9881273256910643e-02  2.9026436368420418e-02  1.6007762136652885e-02  -3.5894483851287621e-03  4.5725322589792899e-01  4.5551500449544075e-01  8.4385784074814382e-02  -2.9455232526796260e-01  3.8497187740031531e-02  4.4039990370792793e-02  9.0692853922345509e-02  5.5013670040545526e-02  1.1678845618808645e-01  4.2238608272517622e-03  6.0052154544175318e-01  -1.6170829542066164e-02  8.3327955545894741e-02  6.7912350603747756e-02  2.4108707364056473e-01  -1.2268673507778478e-01  2.8065335861797894e-02  1.1147464017921374e-01  -2.4786912506441772e-01  -2.1905543165408925e-01  -3.6516908084596950e-01  1.2161289996055914e-01  4.6312143329466184e-02  -2.5881172701990485e-01  4.3984715133356889e-01  7.4980710725815036e-01  1.2759298673042659e-02  -1.0586047978479980e-01  4.7559175011186554e-02  1.1676156067238520e-01  7.2942354455279551e-02  4.1104980152559478e-02  7.7593734964781182e-10  -2.1619157836937924e-01  7.0563406751164806e-02  4.4514407873267213e-03  -2.0638278572883259e-01  -1.8841379489893476e-01  1.7356586630461985e-02  -1.5065488001808103e-01  3.8669869912505267e-01  3.7172674350617657e-01  3.8897162172260490e-02  1.0302858814362659e-01  9.5749121929407821e-02  9.3079778768025909e-02  9.0343166863304500e-02  9.7637771834440681e-02  4.2181078798833045e-02  -1.9857106043812717e-01  1.0515382235817156e-01  9.9832751642228518e-02  6.9159878714448592e-02  6.1833201580268560e-02  -6.2501955289666344e-02  -2.3784420025860162e-01  4.1466841626816360e-02  -1.3351495144186626e-01  3.9866086718525366e-02  -8.2347195963922920e-10  1.1732018187502360e-01  1.1487721551593517e-01  1.2045169952005971e-01  -1.4364845998098705e-01  6.0057484881279058e-02  9.2977063951217381e-02  9.5787300920311569e-02  3.8413181959618001e-02  5.7996185647100622e-02  2.4206303883118393e-02  2.4659606692574512e-02  6.3960425412507335e-02  7.4499495885019917e-02  4.4834004104802323e-02  9.2047244816344367e-02  7.1688525466473155e-02  1.2519567823804265e-02  3.9451337927887759e-01  5.9988088913808579e-02  5.4948240496436117e-02  -4.1099661305423814e-02  8.1051375433437260e-03  8.9207650338520052e-03  3.7131662175118904e-03  -2.1737972363250854e-01  4.1930816063562158e-02  2.7227297951716953e-02  1.1744600356918883e-01  -2.2537537613838965e-01  1.1891279361528426e-01  5.9309666332044410e-02  5.4415460860551566e-02  -1.9883201610933482e-01  -2.0881822181518966e-01  7.7662607770809092e-02  -2.0381733897990864e-01  -2.3282666721157222e-01  -2.2655968880111033e-01  1.1642811047332713e-01  1.1435705281908608e-01  1.0932545331541052e-01  -4.1303695736732099e-01  1.2128356676716051e-01  -1.5112529292311733e-01  1.1921101129195187e-01  3.1696671557290340e-01  -2.4428102026558669e-02  1.0316137182863480e-01  -1.1802324793777075e-01  7.7593734964781182e-10  1.0779952017116197e+00  8.7735859292436968e-01  3.0626366616694156e-02  -2.5745680090606209e-03  -1.1534235667116385e-01  7.9798112107027336e-02  7.5802131459060229e-02  -1.2277220550841596e-01  3.5746397649942280e-02  -1.7438085224367225e-01  5.1988754286224803e-01  4.6513810912176101e-01  4.6973893339114386e-01  3.3130318662793749e-02  1.4121134996961203e-02  8.5847367382783077e-02  8.1298601155317993e-02  7.9895400664875826e-02  1.0992742499942884e-01  5.3376408341222936e-01  1.2093980713754554e-01  -3.7205666808567495e-01  7.4408396649032774e-02  4.9083866137426900e-02  5.3774335981070460e-02  3.5428222149650294e-02  3.3866876762385853e-02  -2.2170960579612561e-01  6.0415190864899784e-02  -1.9664933920557295e-01  5.6336600586402032e-02  1.1976464612073866e-01  9.8594982726