<?xml version="1.0"?>
<VTKFile type="UnstructuredGrid"  version="0.1"  >
<UnstructuredGrid>
<Piece  NumberOfPoints="2426" NumberOfCells="4534">
<Points>
<DataArray  type="Float64"  NumberOfComponents="3"  format="ascii">0 0.41 0  0 0 0  2.2 0 0  2.2 0.41 0  0.2404508497187474 0.2293892626146237 0  0.25 0.2 0  0.2404508497187474 0.1706107373853764 0  0.2154508497187474 0.1524471741852423 0  0.1845491502812526 0.1524471741852423 0  0.1595491502812526 0.1706107373853764 0  0.15 0.2 0  0.1595491502812526 0.2293892626146237 0  0.1845491502812527 0.2475528258147577 0  0.2154508497187474 0.2475528258147577 0  0.5404508497187474 0.2293892626146237 0  0.55 0.2 0  0.5404508497187474 0.1706107373853764 0  0.5154508497187473 0.1524471741852423 0  0.4845491502812526 0.1524471741852423 0  0.4595491502812526 0.1706107373853764 0  0.45 0.2 0  0.4595491502812526 0.2293892626146237 0  0.4845491502812526 0.2475528258147577 0  0.5154508497187473 0.2475528258147577 0  1.1 0 0  0 0.205 0  1.1 0.41 0  0.55 0 0  0.55 0.41 0  0.275 0 0  0.275 0.41 0  1.65 0.41 0  1.65 0 0  1.375 0 0  1.375 0.41 0  1.925 0 0  1.925 0.41 0  0.8250000000000001 0.41 0  0.8250000000000001 0 0  1.5125 0.205 0  1.7875 0.205 0  0.9625000000000001 0.205 0  1.2375 0.205 0  2.2 0.205 0  0.7560964076246335 0.2151713709677419 0  1.99375 0.2152743902439024 0  2.0625 0 0  0.6875 0 0  2.0625 0.41 0  2.2 0.3075 0  0.6875 0.41 0  1.7875 0.41 0  1.375 0.1486128048780488 0  1.5125 0 0  1.7875 0 0  1.5125 0.41 0  0.9625000000000001 0 0  0.9625000000000001 0.41 0  0.4125 0 0  0.1375 0 0  0.1375 0.41 0  0.4125 0.41 0  1.2375 0 0  1.1 0.1486128048780487 0  1.2375 0.41 0  1.65 0.1486128048780487 0  1.126715909090909 0.2793064024390244 0  1.676715909090909 0.2793064024390244 0  1.348284090909091 0.2793064024390244 0  0.34375 0.3032389320646208 0  1.894702181800738 0.1282910975492754 0  2.092797818199262 0.1282910975492754 0  1.85625 0.3075 0  0.8630851210521902 0.286932093388664 0  0.89375 0.1025 0  0.35 0.1090282786671641 0  0 0.3075 0  0 0.1025 0  0.6526217841291382 0.288229645480046 0  0.7562500000000001 0.09660248895515888 0  0.6568633732316684 0.1557582854763441 0  2.099172119769978 0.25625 0  1.002356446954348 0.1010393851523063 0  1.99375 0.08395950269330846 0  1.459960956013612 0.3075 0  1.569025960719943 0.2986889805672169 0  1.03125 0.3278689922742084 0  0.75625 0.3247156761655783 0  1.959375 0.3126371951219512 0  1.749222215368287 0.1025 0  1.275777784631713 0.1025 0  2.2 0.1025 0  1.225938124459196 0.3075 0  1.550777784631713 0.1025 0  1.44375 0.07430640243902442 0  1.16875 0.07430640243902437 0  0.3528655045338512 0.2063263890916129 0  0.5890337614812103 0.08775733857679162 0  0.8504912436891263 0.190072835691683 0  1.899250267340833 0.2229966846119207 0  0.1020898364287272 0.3140258291809757 0  1.766482954545455 0.2934032012195123 0  1.051658316544432 0.2265720188842194 0  0.2 0.3400647632937836 0  1.421109702350723 0.2261157654379721 0  0.4812500000000001 0.41 0  0.4324401666997539 0.3216425986889796 0  0.098916018031319 0.09171660955420841 0  0.9508742791313441 0.2921736960864468 0  2.13125 0 0  2.118919042110979 0.3422084711244843 0  1.30625 0.41 0  0.20625 0 0  1.597888256393107 0.2173787389261347 0  0.4812500000000001 0 0  0.4324082967851086 0.08384041677422771 0  1.829299675393195 0.07400700849299596 0  0.568219932524165 0.3212274660843853 0  1.71875 0.41 0  0.268005226542646 0.08512186835670006 0  1.16875 0.41 0  2.038220665644273 0.332420740103091 0  0.6678017527842831 0.07701763866051195 0  0.89375 0.41 0  0.5111435174287687 0.07335351331957608 0  0.176193934632343 0.0734896648625108 0  0.07390688010811153 0.1697064032433452 0  0.05452951551825875 0.25625 0  0.61875 0.41 0  1.452769549894695 0.1548122580621249 0  1.369219062229598 0.07430640243902442 0  1.30625 0 0  1.720943423819132 0.1714577452753128 0  1.157188124459196 0.205 0  1.094219062229598 0.07430640243902437 0  1.304056576180868 0.1714577452753128 0  1.67579304192913 0.07430640243902437 0  0.2672907219039591 0.3037570723459566 0  1.209670467133757 0.1362100266964769 0  1.58125 0 0  1.03125 0 0  0.06875000000000001 0.41 0  0 0.35875 0  1.58125 0.41 0  1.631724228912893 0.3381867502687533 0  0.8240147050827157 0.1225233169495944 0  1.825608881788174 0.14499488549201 0  1.85625 0 0  1.44375 0 0  1.44375 0.41 0  1.85625 0.41 0  2.13125 0.41 0  0.7562500000000001 0.41 0  0.7562500000000001 0 0  0.89375 0 0  0.34375 0 0  0.34375 0.41 0  0.20625 0.41 0  0.06875000000000001 0 0  1.16875 0 0  1.03125 0.41 0  0.61875 0 0  1.71875 0 0  1.99375 0 0  1.99375 0.41 0  0.3972301426712326 0.2593842555611471 0  1.340625 0.3489494290853124 0  1.134375 0.3489494290853123 0  1.700180620188976 0.3438659752031281 0  0.5003922072260507 0.341765274319271 0  0.6212513815748759 0.2209216137134851 0  0.6885607720119526 0.215393731583638 0  1.033412357328477 0.1612902025713047 0  2.135782184673599 0.07126652247502523 0  1.668441847249787 0.2129203728327609 0  1.295782514339747 0.2378437748815763 0  1.409375 0.3520314716057996 0  2.129248544730567 0.1906135162504124 0  2.060771381434487 0.1989445750470348 0  2.013252586573865 0.1496169464686054 0  1.942766402200229 0.1734448904596831 0  1.895522487186454 0.06076163953489683 0  2.069553871656643 0.06605731020975725 0  0.9281250000000001 0.3539050257418612 0  1.274680914880868 0.3520219391081363 0  0.3030138498135347 0.2488370856812789 0  0.8223773249563684 0.341761430177996 0  0.9018164060227267 0.2326477848736739 0  0.8143027982392851 0.2440265179987191 0  0.7225087161029304 0.2699907246386231 0  1.614713220494657 0.09473434380863296 0  0.378125 0.3566194660323104 0  0.309375 0.3566194660323104 0  1.72990325744076 0.2380068107952482 0  0.6915936999299305 0.3429472631234433 0  0.6268087624932918 0.3466455500035671 0  1.356580098625191 0.2120393231351682 0  0.3060160055995138 0.1590148921620778 0  0.3954648733249218 0.156380553890791 0  2.034370752044885 0.2668681600792073 0  1.51768709249349 0.3426260931494756 0  1.561883724969884 0.1650446847858835 0  1.197344062229598 0.2523725417393646 0  0.9281250000000001 0.05124999999999999 0  1.804085235518364 0.3468178408964637 0  1.817887819205233 0.2589243285818559 0  0.9107805776841645 0.1653834539923287 0  1.905897727272727 0.3485060975609756 0  0 0.05125 0  0.844212276491354 0.0614201194265309 0  0.378125 0.05244637078450034 0  1.008571329007178 0.2705955969954818 0  0.7724048032149464 0.1559079561351474 0  0.7203054377831548 0.04941826955193545 0  1.192836486056382 0.3562350748565544 0  0.5967108020713719 0.1479294686523888 0  1.28257088594801 0.2944411014911587 0  0.7041890234548132 0.1222025174424443 0  1.474860187679412 0.2504218616229368 0  1.406767003493824 0.2829282258560709 0  0.3201325899091991 0.05890121548989159 0  0.5979220912872258 0.2727591995766724 0  1.845656689180403 0.1998310418452388 0  2.144958525570388 0.2909790873294231 0  2.2 0.15375 0  1.57794966442982 0.3540357145964566 0  0.9483181579620558 0.1214693369582054 0  0.0496154796471391 0.333125 0  1.508991196088596 0.1421783375065625 0  0.09776612425612034 0.2204896805326566 0  1.50436820029908 0.06143401634903343 0  1.223857000523521 0.0823554862453532 0  0.2531953886959507 0.3582003209055908 0  1.153316824384777 0.1289850171317837 0  2.148922302309752 0.1258841779285271 0  1.621993280276081 0.2841214267927899 0  1.550118654119087 0.2461998729100966 0  1.327182649291491 0.1216967252533594 0  1.753125 0.04556020050186112 0  1.271875 0.04556020050186116 0  0.9824282234771738 0.05051969257615314 0  1.039510847866381 0.05683351822678641 0  1.94956388244759 0.1180512551534177 0  1.949997712993411 0.04965831614304109 0  1.771961817615021 0.1530278789497521 0  1.909246823951428 0.2812757146784527 0  1.101974016627944 0.2038045618205013 0  0.7906250000000001 0.0444674049654372 0  1.948575539857022 0.2445328248721197 0  1.697271520964565 0.1233917627620729 0  1.065625 0.3689344961371042 0  1.085849084308977 0.3170853572226867 0  0.9840604787624379 0.3582077516409966 0  1.577403511714593 0.05463601888079143 0  0.05622663515370135 0.05493816910862376 0  0.8762396958822678 0.3392249777398821 0  1.751571320346033 0.3651102912045228 0  1.055327852410105 0.111864799513911 0  0.1583785085108421 0.2994699345738728 0  0.1455283439499995 0.3542795598723423 0  2.2 0.35875 0  0.225705107073232 0.05084786997482401 0  0.1455852234589313 0.1166494778469164 0  1.466879772203159 0.3611261772912453 0  1.990280163552011 0.3564754268533217 0  1.17471064520912 0.2990917256188288 0  0.7221925551074015 0.1739659241003985 0  0 0.25625 0  2.2 0.25625 0  2.2 0.05125 0  0 0.15375 0  1.853978576207987 0.35875 0  0.21965520498276 0.1015543880164422 0  1.515638456102889 0.2882700110184686 0  0.09048297387599738 0.3637717362208066 0  2.150453692751374 0.2387066338105111 0  1.323782677156475 0.04897634338873398 0  1.409375 0.03715320121951221 0  1.406484531114799 0.1087852750766809 0  1.134375 0.03715320121951218 0  1.627401732573545 0.04552157221025036 0  0.446875 0.3713289093361426 0  2.045405893604797 0.1105340662939892 0  1.255408269734577 0.1577307500159216 0  2.028125 0.03707597992059326 0  0.04420832937638274 0.128125 0  0.5817551710628505 0.3702615006034757 0  0.1197849154434487 0.2663398672460083 0  1.248258025468107 0.2565907092181813 0  0.1300647302703173 0.0508462728378621 0  0.7738123537510222 0.2761231499240648 0  1.203125 0.0366132337404304 0  0.5444207041612499 0.111205399508622 0  0.8016457771828226 0.1964238426015905 0  2.072662025974815 0.2975086504196739 0  0.4019040438866802 0.2103993403217561 0  0.4677372330974851 0.04827477407630658 0  0.8677218578847617 0.1432970430140788 0  1.058011122005847 0.2758866204059919 0  0.4429405887974043 0.2746184809910084 0  0.5843750000000001 0.03726989681835222 0  0.6318596133730142 0.1128692182767254 0  0.4862628454464408 0.2957029785303028 0  0.7805186758662764 0.3673578380827891 0  1.887722846421017 0.1760882698830035 0  0.3498893058880703 0.256189258793856 0  1.472640588990488 0.1118278026240017 0  1.865937103925594 0.2604137786483804 0
[...]
<PointData  Scalars="f_43"> 
<DataArray  type="Float64"  Name="f_43"  format="ascii">4.2057425129212317e-01  4.5253156685606322e-01  1.5609523821603227e-09  1.1645127580616263e-09  -3.6412799409702495e-01  -3.2555296155605146e-01  -3.4658403082007949e-01  -5.1404804185491748e-01  -9.3034524011257935e-01  8.6374118280891232e-01  1.9953400384466937e+00  3.9685099816700475e-01  -1.1615523616608441e+00  -5.1043548712361175e-01  -2.7054699253699849e-01  -2.5689639688914279e-01  -3.0430690262469889e-01  -4.8030945524103325e-01  -1.4943242061115447e-01  -1.2269814573417319e-01  -2.9714803093108783e-01  -1.3205770730101352e-01  -5.6752723141180399e-02  -4.9752013827944019e-01  -3.2204603904538026e-03  7.6346250880614941e-01  -4.3192891202671405e-03  -2.1416710372251960e-01  -1.8842203205081115e-01  -1.3501181643361547e-03  1.8369490900404916e-02  6.5061507813099578e-02  6.1168555223386448e-02  3.8684824270590182e-02  4.2518433168169827e-02  3.0098274413838680e-02  3.0100457115602185e-02  -1.0699148217701566e-01  -7.4260945719331478e-02  6.2598100631807263e-02  4.6055685164481969e-02  2.0668263131079927e-02  2.1136263911561169e-02  2.7326611069138253e-09  -8.0637585610462539e-02  2.2682096503494231e-02  1.5030479534522136e-02  -1.5864607069748257e-01  1.5231017367622874e-02  1.1097275237934687e-09  -1.4379405183408073e-01  4.6203982467910680e-02  4.9791335468778203e-02  7.2422482400339341e-02  4.4867359799284912e-02  6.3342887754064520e-02  -5.3329353665142763e-02  -4.9990175897935987e-02  -1.9960270485320583e-01  3.6923609207645075e-01  3.4532765376980146e-01  -1.7587753023078218e-01  3.3410183006613269e-02  2.5690256821289253e-02  2.9212117083206059e-02  5.9937112979879706e-02  3.2939452969454001e-03  5.9644306012746152e-02  3.8912289911223155e-02  -2.6294168181590738e-01  3.3539061626920295e-02  1.1780199957567064e-02  3.7901428080360879e-02  -4.4328221722049393e-02  -3.0293642058278971e-02  -2.9896128423314550e-01  5.1726946649177885e-01  5.5240597036223493e-01  -1.8165925527953086e-01  -8.8100681752251844e-02  -2.2104878367908734e-01  1.1062338128997328e-02  -3.5007969121873150e-02  2.2716189018405195e-02  4.8726783549891108e-02  6.6958010531558532e-02  -1.4317306910591656e-02  -1.1664765381163446e-01  2.6425512340865261e-02  4.9361807670508795e-02  2.4515246431452024e-02  -1.9859161022245502e-09  2.6517306198212014e-02  6.8441371679473548e-02  5.8625569405936773e-02  3.1960252231981165e-02  -3.6358628394832837e-01  -2.3545331363922162e-01  7.7038403958001296e-03  3.3196129584979563e-02  4.6063154842771281e-01  4.8829846928988369e-02  1.3202419897305619e-02  1.4873528150767318e-01  4.4426559838888074e-02  -1.9373902725956643e-01  -2.1066996608477445e-01  4.9113504550697173e-01  -1.5862768748167038e-02  7.5005435289691967e-03  8.8408034896079943e-03  3.9219319679476651e-02  1.9681122846754709e-01  6.4525658111062520e-02  -2.1706920035188346e-01  -2.2489004817817612e-01  4.0366853562606379e-02  -2.1128912089915936e-01  5.5356475285129249e-02  -1.4958615720938676e-01  1.2366160776319768e-02  1.7736491021257041e-02  -1.7191597798598718e-01  -8.2464013408688655e-02  -2.3538627513861224e-01  2.1380762800799788e-01  8.9633410497482569e-01  7.1804253503641902e-01  -1.6822537222709696e-01  6.1917035553511683e-02  3.3514709918364353e-02  2.7951962636514002e-02  5.3261703734794101e-02  1.2622972606982134e-02  -6.9656018263880874e-03  2.2271079782941888e-02  5.7668895940899148e-02  -1.9100501947807502e-01  1.3290236395617050e-02  6.9754226549091830e-02  -4.1430841859342982e-02  4.0841395389444024e-01  4.3275591799582958e-01  6.9787792746861019e-02  6.7442858608567885e-02  -2.5379893577337657e-02  4.1246777240873840e-02  3.7359214340055652e-02  6.0415202913360881e-02  4.9822057680894399e-02  3.7768722029132167e-02  7.5036099918207224e-03  -1.2395063842389738e-01  -1.1445401986081231e-01  -5.4281082374488643e-02  -1.4103307464297543e-01  -1.0949963030506683e-01  1.9501963130213290e-01  4.3820264912016504e-01  2.9418243233671842e-02  -2.2683449793976344e-02  -1.9163778881400467e-01  5.2573308939833814e-02  2.2649699265664843e-02  2.2447724331279312e-02  -3.4353700004560922e-01  4.1177197659105706e-02  2.3978531205058099e-03  5.7984846954409551e-02  -2.0433034125451860e-01  -2.2970146523221263e-01  -1.5310686787156352e-01  1.2394008689028239e-02  7.0382611380768231e-03  5.9210845848307415e-02  3.9364413807884448e-02  4.2421796823437809e-02  7.7828134076185886e-03  1.5309971362727312e-02  2.0533886620244725e-02  2.8322339692854963e-02  3.3293313190817617e-02  1.4317442840529973e-02  -6.4378407052954931e-02  3.6806970990313680e-02  -3.6202441908257454e-01  -1.0167257437887360e-01  2.1531408271863062e-02  -4.6817298888188912e-02  -1.3339601599269130e-01  6.4372486202995266e-02  -1.6882048817380088e-01  -8.7600488895325512e-02  5.2897657522264163e-02  -1.4077693717918391e-01  -1.6909406767582122e-01  4.0977713031382181e-02  -3.4608905250310434e-01  -3.8476617945045255e-01  1.8171812445835968e-02  6.1500285630893589e-02  6.4265848693661823e-02  2.2725773448888424e-02  -4.9854424020635946e-02  4.4011231146282852e-02  4.2566282025969161e-02  5.1829983759951715e-04  3.2242425184872067e-02  4.6545765667650729e-01  -5.6749150277358842e-02  -1.9447321700642220e-01  7.2701048743725790e-03  -2.4532552875134485e-02  -1.3411381207584658e-01  1.7151825342251771e-02  -2.7868371660313962e-01  3.7712414406126153e-02  -1.2930267867703374e-01  5.5509238986153384e-02  4.3043525253849704e-02  -1.3493121550221765e-01  -2.3226893433212850e-01  3.9283126356320641e-02  6.0205293819045637e-03  -1.9156388532593467e-09  7.0619561393541586e-02  -2.3254959848361432e-02  4.5618988869333699e-01  6.4813865317731575e-02  1.1153452731496880e+00  7.1345511753188429e-02  3.4367543844253133e-02  2.8181642616393707e-02  2.1195915862208082e-02  5.6273310186646724e-03  6.5395225815097227e-02  6.6066629547458636e-02  3.0753939414586966e-02  4.8582936662375488e-02  2.8420886867391398e-02  -5.4055642119522684e-02  -4.1645396101821205e-02  2.7550614076276913e-02  2.7453791611352720e-02  4.7387888582345813e-02  3.1981941465168522e-02  1.3473141174638837e-02  -8.8381964099969929e-02  2.7682651165965071e-02  5.5274879131705909e-02  -1.2383097068670305e-02  -3.4661127517360214e-03  -3.7564493637170807e-02  7.0057224546017774e-02  4.5863597985242410e-01  -8.3301933814555792e-02  5.0826207849801866e-02  -1.0516003667984757e-02  2.2811394173117930e-01  3.1965720422065708e-01  -5.7926204330603667e-09  9.8528325412809176e-02  3.3762698191996693e-01  5.1560368588741821e-02  2.3002768504963952e-02  1.3220164042694112e-02  -9.6957552941872333e-02  6.6876872356890593e-01  1.1097275237934687e-09  1.0126108480936694e-09  6.9578768147632131e-01  3.8064173912842364e-02  -1.3952788772877689e-01  6.0608481023990163e-02  3.9975995154012867e-01  5.4386321048440654e-03  2.4797816817086489e-02  4.8179967930203377e-02  4.9832402947240270e-02  1.6115871775222380e-02  6.4015359293981680e-02  -1.8930039822923564e-01  1.6986820053041689e-02  7.2706263057002903e-03  1.8888439224104540e-02  6.3918229239859092e-01  -1.8017047404982170e-01  6.6407489539999565e-01  3.6206323726468863e-02  3.7483377091299203e-01  -9.5338979410445349e-02  3.6294381178084548e-02  -2.9456856490669731e-01  -2.0022843838237440e-02  1.3961720108200234e-02  -3.3932778163991328e-01  -2.1509154344306661e-01  -6.3555137720558508e-03  6.8508105615274460e-04  -2.0370245459512915e-01  -2.0548380427084498e-01  -2.2416089077524123e-01  -2.1031514183763023e-01  -1.1584815085791944e-01  3.4454920266811115e-02  -3.7369056415198720e-01  6.4018422463317307e-02  3.6946605815629321e-02  -5.1422082160632147e-03  5.5701014352291994e-02  -1.3297890400657122e-01  4.1662641886201002e-02  -1.3309127886846878e-01  -1.8768165409148774e-01  -1.2663131032469047e-01  1.6887800997976109e-02  -2.4384865834439101e-01  -2.1480375653242190e-01  5.4307590321902098e-02  -2.7621694693944820e-01  -2.4160967541270684e-01  4.7783249571037301e-02  1.0403518358012592e-02  5.0888988479873068e-02  -7.2429293055187208e-02  1.8892670177846658e-02  -3.4998822065733420e-01  -3.5603851433980827e-01  6.3153039619700604e-02  -3.6301717809913137e-01  9.0424139034283590e-01  4.3141525526115297e-02  8.3855868474843720e-01  2.3034521735883377e-02  -7.0344606550005418e-03  -4.4559440893197161e-02  4.1254728664134217e-03  1.1287701387705738e-02  1.3637658290281138e-02  -1.9059280434370850e-02  2.4139330590309410e-02  6.8582602162356801e-02  -1.5012686532955363e-01  -3.0075936222235666e-01  4.4535970529662676e-02  -9.6089593854433136e-02  2.1231504955618982e-02  3.8050613760491521e-02  1.4836218080587285e-02  6.7866218708940010e-02  6.1763127860864804e-02  -1.9207524143775181e-01  -2.0553434786855077e-01  6.7677589133292054e-02  5.6691597271332002e-02  5.3833383077635862e-02  4.4104336613676543e-03  4.4233701347748807e-03  4.1808304000625424e-01  -3.0020190311304157e-01  -3.9653404259063177e-02  6.2549394178734757e-02  4.3686611789759244e-02  3.6357089592721624e-02  -6.5166389708966738e-02  7.2263950977483810e-02  2.7796913564475990e-02  -4.7485950013118006e-02  5.9926567165170625e-05  4.1875272275461492e-02  5.2836219721556818e-02  2.9299928488370269e-01  6.3432070792825479e-02  -2.1839870271841624e-01  -2.1744407225138013e-01  -2.0462815374272313e-02  2.8023711504744531e-01  1.5760315118148537e-02  -2.3969667391582229e-02  6.5222031401675651e-02  -2.3707111272020806e-01  2.8389331182468964e-02  1.1636836757000122e-02  6.6167758003186583e-02  6.5952144156082193e-02  -2.5538120843691220e-01  -1.6444625343222355e-01  2.2103475908417828e-02  1.7074409311977554e-02  7.2001700534619576e-03  2.6351718058908315e-02  -4.1357324780161263e-03  4.3133974529002209e-03  4.1419399722432421e-01  4.1491559591858594e-02  -1.5948071606852410e-01  -1.9754949021890272e-01  -1.3313391597591048e-01  2.3177494513215293e-02  -3.4088066239355019e-01  3.3898806247405551e-02  -6.1109010722560267e-02  3.7316713321301397e-02  3.3842860215800352e-02  2.9795268744894444e-02  -4.6209957968514251e-02  6.8254490824102426e-02  5.3435241581637101e-02  5.9085869834121514e-02  5.9836767321869835e-02  4.4985357893625055e-01  4.2092849012638439e-01  1.7852292194966559e-02  5.7643678853428665e-02  -9.8952571824079114e-02  -7.7409553037150539e-02  4.5848044537029047e-03  3.4059999302280823e-03  5.5311689841992495e-01  -2.5950415213906275e-01  6.9092112732386923e-01  -1.8276835119191162e-01  4.5863361013466566e-02  -7.2490897297689164e-02  -4.1447880821490875e-02  -2.6502139634915628e-01  6.2735293970143810e-02  7.5993583956527355e-01  -1.8654237690097655e-01  1.8407451098422387e-02  4.8712408985769270e-02  2.5041829272270222e-01  6.2419776725783103e-02  5.9369242114074472e-01  7.2860372123650471e-02  -1.2547585319428375e-01  5.0660170465528474e-02  2.3904615157702879e-02  5.1580883332612702e-02  2.1824646677398755e-02  3.9900009187551183e-02  3.2248960057953281e-02  4.7493623180724356e-03  5.6724407159684812e-02  3.8063433050583524e-02  -2.0536409566953442e-01  2.4875318041747946e-02  -1.9702900410212187e-01  -1.7724198127910998e-01  2.8926388275084074e-02  1.8725721298262325e-02  5.2676390741185286e-01  6.9002135515741719e-02  6.2028851648121885e-02  2.3105502232386335e-01  4.3341452184825885e-01  -3.5107291780061375e-02  4.9579672030873406e-01  6.7985105465677612e-02  -4.4485277265709222e-02  6.3569203183762496e-02  -2.1762141391597109e-01  6.5211433022522400e-02  4.1149931093212966e-02  -1.8430849353151493e-01  -8.1807538802831092e-02  1.5043710306791327e-02  1.9001180204698848e-02  2.3952948778985902e-02  9.9800183057231154e-03  -3.5151263858836823e-02  9.1040491733549653e-03  4.0496359659451357e-03  4.8123086163484236e-02  7.1960687844800350e-02  -3.4864407811408438e-01  4.6712262202831659e-02  -4.8322957724842974e-03  3.8626409591281676e-03  8.7896301476073774e-03  2.6769224006934062e-02  9.9539443874054785e-03  1.9595408869629630e-02  3.7528996920458683e-02  4.4148337302618218e-02  -8.4347436918890389e-03  -1.9916247612349655e-01  -1.9361910717897945e-01  9.4668385838735311e-02  -1.0104129716761028e-01  -1.1283986218508016e-01  -1.9394959916307861e-01  -1.7702795018712858e-01  1.3603706120582975e+00  -4.9258993938870677e-02  1.5201995262236387e-01  9.2973390281038976e-03  3.8674475198577558e-03  3.9593293948612433e-02  4.1155385318138220e-02  4.1411607057378910e-02  4.8624245799966824e-03  5.6008419472885831e-02  8.6165336565493071e-03  2.1319472025847934e-02  -3.4159787294506627e-01  -2.1169425694474156e-01  3.8185910318839444e-02  -3.3984329230997651e-01  -2.8480288370446383e-01  3.3924397499100332e-02  -2.8837512561654000e-01  -3.6423660859875917e-01  4.2554016958809768e-02  6.0375018294379780e-02  2.2749276285556425e-02  1.8802076392895748e-02  2.6356400689224211e-02  3.5221296464888585e-02  -2.4123322954417833e-01  -8.9710981559071399e-04  -2.4279481756961176e-04  2.5606754707634175e-03  3.0386974287108872e-02  3.0615907791438274e-02  3.6866091635722087e-03  1.1411072082009466e-02  4.9706537690747586e-02  5.6181140385406510e-02  5.0614329127228720e-02  -1.2742712492121189e-02  4.8504622283166002e-02  -1.3661279194699463e-01  -5.2736547937964680e-02  -6.6044679375154278e-02  4.5518452211435113e-02  1.5758726286064995e-02  3.6713799258654006e-03  -2.4480212448969620e-02  -1.8835548197109028e-01  -1.7669943911913275e-01  -1.4925273274495424e-01  3.8540350686724384e-01  1.0617817245019973e-01  -1.1576234893990929e-01  -2.0645291830894577e-01  -1.8016034725192565e-01  -9.3013124894707658e-02  -5.6811876566040795e-02  -1.2039872938360731e-01  -1.6424836080230698e-01  -1.5592191145265710e-01  3.4525197304630037e-02  6.5492139698382607e-02  2.6539973154397486e-02  2.9543844925985319e-02  1.8866808411299740e-02  2.6392759330742404e-02  -5.0639339312108962e-02  5.5600364054605049e-02  -1.5355080876657298e-01  2.0843537524323923e-02  3.1402487016622800e-02  1.7932200841726434e-02  1.4176500465108845e-02  5.9083065144439624e-02  2.1088906575974890e-02  -1.0893318624172024e-01  -7.9731047407231942e-02  -3.2842459479703906e-01  -3.5206795752416165e-01  -1.5219765204157967e-01  -8.2607247222209901e-03  3.7884493223271920e-02  3.7982574915471565e-02  2.5676544868428460e-02  3.8978782289967162e-01  1.0195105966468204e-02  6.3959713859649742e-02  5.5077419909561033e-02  -1.1057429635993109e-01  3.1952657256569900e-02  2.8299452890207732e-01  4.5432255525158637e-02  4.6042874358151339e-02  5.6386690251900587e-02  3.3766016450817643e-02  1.5106285215211481e-02  -1.3691715974215662e-01  5.5247595145447269e-02  -7.3856015380026410e-02  4.0618518408479423e-02  5.9778632892237976e-02  3.3005198291631885e-02  -1.5756921936286639e-01  3.0098249891969110e-02  5.8951324946964923e-02  7.3338894867629834e-01  -2.0688996857446629e-01  -4.9136925714943474e-03  6.7797011641431329e-02  -2.6570911875886982e-01  -5.6623985542888826e-02  1.5204907044843169e-02  1.2380492119579409e-02  4.5528734278885125e-02  7.9673993886873784e-01  3.1255507343887753e-02  1.5602083754020097e-02  3.0380737480619154e-02  3.1440711538114008e-02  3.6365324794924764e-01  1.2467400520941566e-02  3.2600312737697906e-01  -5.3459743450934252e-02  1.7597609228527857e-02  -3.6318149717344583e-01  -3.7817214071224114e-01  4.3953689378657117e-02  -3.6921888637004596e-01  -4.0568680873048296e-02  4.0445287191318943e-02  5.7748276467128427e-02  3.9672888939011997e-02  2.6246870829556318e-02  -1.4613406284986936e-02  3.4889574475291314e-03  -1.9541823257615384e-02  -6.3011458021335412e-02  6.5110668849970563e-02  -1.9789321316643316e-01  6.8054627133925225e-02  6.1538450388401424e-02  3.2004984750961696e-02  -7.2209009747850536e-02  -1.3780719828110777e-01  -1.1743274688791872e-01  -1.0730200834751122e-01  5.4069872301725653e-03  6.9397351126177884e-02  -2.8148177895640808e-01  -1.6235303217703895e-01  -1.8683518971458640e-01  7.0189838128651677e-02  5.7937108311562691e-01  6.4412002240396143e-02  -1.0246359037708819e-02  -1.1343662840995836e-01  2.8943050521836090e-02  -2.4459409230224025e-01  3.5843501980423541e-02  -3.4403771106084913e-01  1.9091099538580521e-02  -1.5666349039031285e-01  -1.8732904006903792e-01  -2.1957852872059830e-01  2.8398709461156670e-02  7.7395845277933471e-03  7.1342989640018464e-02  4.3360174575290532e-02  1.8130895185225687e-02  -9.1532617787415782e-02  1.1182242086168446e+00  5.1078789632987863e-02  -3.8957922761491105e-02  -3.0528336823482055e-01  3.5223825147415025e-02  2.8597153976560707e-02  5.9140009422431764e-02  6.6486766111773440e-02  4.5448050351903545e-02  4.0300703102587140e-02  1.1735668659400279e-02  7.1064454302936744e-02  2.4768899264632733e-02  -5.2512745838937808e-02  -5.1243846960004322e-02  4.5293356857696215e-01  4.5119271554596457e-01  6.5088397964647146e-02  -2.8451715656428683e-01  3.3024756589955621e-02  -7.6858574889788957e-04  1.4252893470141225e-02  -6.5246977336586385e-03  3.9755284571720298e-02  1.0810865411742629e-02  5.9826733361358209e-01  -3.6602832684777334e-02  6.7395525412041829e-02  6.5636429447735442e-02  2.3953510070419259e-01  -1.2703749210709364e-01  2.4162308582833632e-02  4.0925825069865106e-02  -2.6994994748319862e-01  -2.5565727792118581e-01  -3.5117635914828571e-01  3.0024746535249097e-02  3.9881392972526325e-02  -2.8469312875115821e-01  4.3559053592030733e-01  7.4684620147962644e-01  1.1007675674914844e-02  -1.5020623742205666e-01  4.0458349981187615e-02  3.0500392946342800e-02  6.1702255183982896e-02  3.5392125746612414e-02  2.7326611069138253e-09  -2.0192276484962335e-01  6.2282700284057947e-02  3.8582694853264363e-03  -2.0768756226364038e-01  -1.9665438899883828e-01  1.4887483190735799e-02  -1.4932390732456233e-01  3.8496364522962823e-01  3.6978652636891796e-01  3.3538686766622125e-02  4.2747267702518896e-02  4.9936667255575808e-02  5.3337900066357427e-02  5.9372060396940138e-02  5.8581653656047859e-02  3.6199342528813357e-02  -1.8771148857989142e-01  3.9413016816335758e-02  4.3278719274825433e-02  -5.3385589287326864e-03  -9.8587184843254433e-03  -6.9148668432302274e-02  -2.2730020298146397e-01  3.5844050887925784e-02  -1.3101089010348960e-01  3.9694446398994568e-02  -1.9859161022245502e-09  3.3503461392805849e-02  3.8236061005377242e-02  3.6693444571670009e-02  -1.5626700753697256e-01  5.1304871725662123e-02  -1.6286340956503465e-03  -3.8610687058549128e-04  -1.2421200738953156e-02  -2.4223951375870009e-02  -2.6427397110842594e-02  2.1077812398318817e-02  -3.5105894015226985e-02  -2.5448193947051466e-02  -5.0234864204690796e-02  6.3645981441928928e-02  6.5292388684154351e-02  -4.3002410377264627e-02  3.9049919589812021e-01  -3.5279008588943235e-02  4.8366138936878217e-02  -4.7616212334298934e-02  6.9471304741733266e-03  7.6588597710629093e-03  3.1979853336676265e-03  -2.2220422728403180e-01  3.6266180285264286e-02  2.3306058868241594e-02  1.3309802468430500e-02  -2.4905673768758241e-01  2.6245149407956404e-02  5.0565270406697033e-02  4.6231435903845430e-02  -2.0851226868083103e-01  -2.2106346692430226e-01  6.5157138534834291e-02  -2.0547209564189364e-01  -2.3227958280271471e-01  -2.3220785278028266e-01  1.8980991547143979e-02  2.6556713632615706e-02  3.6094034665086060e-02  -4.2399023087612897e-01  2.3753908561642997e-02  -1.4552107389024879e-01  2.5114655363721806e-02  3.1541545339626559e-01  -1.2172910967282865e-02  1.3126605008274447e-02  -1.1306956426926254e-01  2.7326611069138253e-09  1.0740635674691552e+00  8.7426419358832630e-01  -2.5468423872316376e-02  -6.9603325266989036e-02  -1.4708335752834170e-01  6.9180391603077901e-02  7.0095452124260785e-02  -1.2984037463964063e-01  3.0715978688533558e-02  -1.7710609679581280e-01  5.1794070201976572e-01  4.6337666096915714e-01  4.6790729335423470e-01  2.8507067445187658e-02  1.2130180258097350e-02  6.4368945539145350e-02  6.6348548217959824e-02  6.5832517272512131e-02  4.2184392514726297e-02  5.2636276944911975e-01  3.6658271470448207e-02  -3.8193368684440282e-01  6.2133606083676976e-02  4.2685799682373522e-02  4.7128285293491126e-02  3.0385782454181266e-02  2.9039803136556210e-02  -2.0157440479940925e-01  5.4159589707972383e-02  -1.9701521712385123e-01  4.