<?xml version="1.0"?>
<VTKFile type="UnstructuredGrid"  version="0.1"  >
<UnstructuredGrid>
<Piece  NumberOfPoints="2426" NumberOfCells="4534">
<Points>
<DataArray  type="Float64"  NumberOfComponents="3"  format="ascii">0 0.41 0  0 0 0  2.2 0 0  2.2 0.41 0  0.2404508497187474 0.2293892626146237 0  0.25 0.2 0  0.2404508497187474 0.1706107373853764 0  0.2154508497187474 0.1524471741852423 0  0.1845491502812526 0.1524471741852423 0  0.1595491502812526 0.1706107373853764 0  0.15 0.2 0  0.1595491502812526 0.2293892626146237 0  0.1845491502812527 0.2475528258147577 0  0.2154508497187474 0.2475528258147577 0  0.5404508497187474 0.2293892626146237 0  0.55 0.2 0  0.5404508497187474 0.1706107373853764 0  0.5154508497187473 0.1524471741852423 0  0.4845491502812526 0.1524471741852423 0  0.4595491502812526 0.1706107373853764 0  0.45 0.2 0  0.4595491502812526 0.2293892626146237 0  0.4845491502812526 0.2475528258147577 0  0.5154508497187473 0.2475528258147577 0  1.1 0 0  0 0.205 0  1.1 0.41 0  0.55 0 0  0.55 0.41 0  0.275 0 0  0.275 0.41 0  1.65 0.41 0  1.65 0 0  1.375 0 0  1.375 0.41 0  1.925 0 0  1.925 0.41 0  0.8250000000000001 0.41 0  0.8250000000000001 0 0  1.5125 0.205 0  1.7875 0.205 0  0.9625000000000001 0.205 0  1.2375 0.205 0  2.2 0.205 0  0.7560964076246335 0.2151713709677419 0  1.99375 0.2152743902439024 0  2.0625 0 0  0.6875 0 0  2.0625 0.41 0  2.2 0.3075 0  0.6875 0.41 0  1.7875 0.41 0  1.375 0.1486128048780488 0  1.5125 0 0  1.7875 0 0  1.5125 0.41 0  0.9625000000000001 0 0  0.9625000000000001 0.41 0  0.4125 0 0  0.1375 0 0  0.1375 0.41 0  0.4125 0.41 0  1.2375 0 0  1.1 0.1486128048780487 0  1.2375 0.41 0  1.65 0.1486128048780487 0  1.126715909090909 0.2793064024390244 0  1.676715909090909 0.2793064024390244 0  1.348284090909091 0.2793064024390244 0  0.34375 0.3032389320646208 0  1.894702181800738 0.1282910975492754 0  2.092797818199262 0.1282910975492754 0  1.85625 0.3075 0  0.8630851210521902 0.286932093388664 0  0.89375 0.1025 0  0.35 0.1090282786671641 0  0 0.3075 0  0 0.1025 0  0.6526217841291382 0.288229645480046 0  0.7562500000000001 0.09660248895515888 0  0.6568633732316684 0.1557582854763441 0  2.099172119769978 0.25625 0  1.002356446954348 0.1010393851523063 0  1.99375 0.08395950269330846 0  1.459960956013612 0.3075 0  1.569025960719943 0.2986889805672169 0  1.03125 0.3278689922742084 0  0.75625 0.3247156761655783 0  1.959375 0.3126371951219512 0  1.749222215368287 0.1025 0  1.275777784631713 0.1025 0  2.2 0.1025 0  1.225938124459196 0.3075 0  1.550777784631713 0.1025 0  1.44375 0.07430640243902442 0  1.16875 0.07430640243902437 0  0.3528655045338512 0.2063263890916129 0  0.5890337614812103 0.08775733857679162 0  0.8504912436891263 0.190072835691683 0  1.899250267340833 0.2229966846119207 0  0.1020898364287272 0.3140258291809757 0  1.766482954545455 0.2934032012195123 0  1.051658316544432 0.2265720188842194 0  0.2 0.3400647632937836 0  1.421109702350723 0.2261157654379721 0  0.4812500000000001 0.41 0  0.4324401666997539 0.3216425986889796 0  0.098916018031319 0.09171660955420841 0  0.9508742791313441 0.2921736960864468 0  2.13125 0 0  2.118919042110979 0.3422084711244843 0  1.30625 0.41 0  0.20625 0 0  1.597888256393107 0.2173787389261347 0  0.4812500000000001 0 0  0.4324082967851086 0.08384041677422771 0  1.829299675393195 0.07400700849299596 0  0.568219932524165 0.3212274660843853 0  1.71875 0.41 0  0.268005226542646 0.08512186835670006 0  1.16875 0.41 0  2.038220665644273 0.332420740103091 0  0.6678017527842831 0.07701763866051195 0  0.89375 0.41 0  0.5111435174287687 0.07335351331957608 0  0.176193934632343 0.0734896648625108 0  0.07390688010811153 0.1697064032433452 0  0.05452951551825875 0.25625 0  0.61875 0.41 0  1.452769549894695 0.1548122580621249 0  1.369219062229598 0.07430640243902442 0  1.30625 0 0  1.720943423819132 0.1714577452753128 0  1.157188124459196 0.205 0  1.094219062229598 0.07430640243902437 0  1.304056576180868 0.1714577452753128 0  1.67579304192913 0.07430640243902437 0  0.2672907219039591 0.3037570723459566 0  1.209670467133757 0.1362100266964769 0  1.58125 0 0  1.03125 0 0  0.06875000000000001 0.41 0  0 0.35875 0  1.58125 0.41 0  1.631724228912893 0.3381867502687533 0  0.8240147050827157 0.1225233169495944 0  1.825608881788174 0.14499488549201 0  1.85625 0 0  1.44375 0 0  1.44375 0.41 0  1.85625 0.41 0  2.13125 0.41 0  0.7562500000000001 0.41 0  0.7562500000000001 0 0  0.89375 0 0  0.34375 0 0  0.34375 0.41 0  0.20625 0.41 0  0.06875000000000001 0 0  1.16875 0 0  1.03125 0.41 0  0.61875 0 0  1.71875 0 0  1.99375 0 0  1.99375 0.41 0  0.3972301426712326 0.2593842555611471 0  1.340625 0.3489494290853124 0  1.134375 0.3489494290853123 0  1.700180620188976 0.3438659752031281 0  0.5003922072260507 0.341765274319271 0  0.6212513815748759 0.2209216137134851 0  0.6885607720119526 0.215393731583638 0  1.033412357328477 0.1612902025713047 0  2.135782184673599 0.07126652247502523 0  1.668441847249787 0.2129203728327609 0  1.295782514339747 0.2378437748815763 0  1.409375 0.3520314716057996 0  2.129248544730567 0.1906135162504124 0  2.060771381434487 0.1989445750470348 0  2.013252586573865 0.1496169464686054 0  1.942766402200229 0.1734448904596831 0  1.895522487186454 0.06076163953489683 0  2.069553871656643 0.06605731020975725 0  0.9281250000000001 0.3539050257418612 0  1.274680914880868 0.3520219391081363 0  0.3030138498135347 0.2488370856812789 0  0.8223773249563684 0.341761430177996 0  0.9018164060227267 0.2326477848736739 0  0.8143027982392851 0.2440265179987191 0  0.7225087161029304 0.2699907246386231 0  1.614713220494657 0.09473434380863296 0  0.378125 0.3566194660323104 0  0.309375 0.3566194660323104 0  1.72990325744076 0.2380068107952482 0  0.6915936999299305 0.3429472631234433 0  0.6268087624932918 0.3466455500035671 0  1.356580098625191 0.2120393231351682 0  0.3060160055995138 0.1590148921620778 0  0.3954648733249218 0.156380553890791 0  2.034370752044885 0.2668681600792073 0  1.51768709249349 0.3426260931494756 0  1.561883724969884 0.1650446847858835 0  1.197344062229598 0.2523725417393646 0  0.9281250000000001 0.05124999999999999 0  1.804085235518364 0.3468178408964637 0  1.817887819205233 0.2589243285818559 0  0.9107805776841645 0.1653834539923287 0  1.905897727272727 0.3485060975609756 0  0 0.05125 0  0.844212276491354 0.0614201194265309 0  0.378125 0.05244637078450034 0  1.008571329007178 0.2705955969954818 0  0.7724048032149464 0.1559079561351474 0  0.7203054377831548 0.04941826955193545 0  1.192836486056382 0.3562350748565544 0  0.5967108020713719 0.1479294686523888 0  1.28257088594801 0.2944411014911587 0  0.7041890234548132 0.1222025174424443 0  1.474860187679412 0.2504218616229368 0  1.406767003493824 0.2829282258560709 0  0.3201325899091991 0.05890121548989159 0  0.5979220912872258 0.2727591995766724 0  1.845656689180403 0.1998310418452388 0  2.144958525570388 0.2909790873294231 0  2.2 0.15375 0  1.57794966442982 0.3540357145964566 0  0.9483181579620558 0.1214693369582054 0  0.0496154796471391 0.333125 0  1.508991196088596 0.1421783375065625 0  0.09776612425612034 0.2204896805326566 0  1.50436820029908 0.06143401634903343 0  1.223857000523521 0.0823554862453532 0  0.2531953886959507 0.3582003209055908 0  1.153316824384777 0.1289850171317837 0  2.148922302309752 0.1258841779285271 0  1.621993280276081 0.2841214267927899 0  1.550118654119087 0.2461998729100966 0  1.327182649291491 0.1216967252533594 0  1.753125 0.04556020050186112 0  1.271875 0.04556020050186116 0  0.9824282234771738 0.05051969257615314 0  1.039510847866381 0.05683351822678641 0  1.94956388244759 0.1180512551534177 0  1.949997712993411 0.04965831614304109 0  1.771961817615021 0.1530278789497521 0  1.909246823951428 0.2812757146784527 0  1.101974016627944 0.2038045618205013 0  0.7906250000000001 0.0444674049654372 0  1.948575539857022 0.2445328248721197 0  1.697271520964565 0.1233917627620729 0  1.065625 0.3689344961371042 0  1.085849084308977 0.3170853572226867 0  0.9840604787624379 0.3582077516409966 0  1.577403511714593 0.05463601888079143 0  0.05622663515370135 0.05493816910862376 0  0.8762396958822678 0.3392249777398821 0  1.751571320346033 0.3651102912045228 0  1.055327852410105 0.111864799513911 0  0.1583785085108421 0.2994699345738728 0  0.1455283439499995 0.3542795598723423 0  2.2 0.35875 0  0.225705107073232 0.05084786997482401 0  0.1455852234589313 0.1166494778469164 0  1.466879772203159 0.3611261772912453 0  1.990280163552011 0.3564754268533217 0  1.17471064520912 0.2990917256188288 0  0.7221925551074015 0.1739659241003985 0  0 0.25625 0  2.2 0.25625 0  2.2 0.05125 0  0 0.15375 0  1.853978576207987 0.35875 0  0.21965520498276 0.1015543880164422 0  1.515638456102889 0.2882700110184686 0  0.09048297387599738 0.3637717362208066 0  2.150453692751374 0.2387066338105111 0  1.323782677156475 0.04897634338873398 0  1.409375 0.03715320121951221 0  1.406484531114799 0.1087852750766809 0  1.134375 0.03715320121951218 0  1.627401732573545 0.04552157221025036 0  0.446875 0.3713289093361426 0  2.045405893604797 0.1105340662939892 0  1.255408269734577 0.1577307500159216 0  2.028125 0.03707597992059326 0  0.04420832937638274 0.128125 0  0.5817551710628505 0.3702615006034757 0  0.1197849154434487 0.2663398672460083 0  1.248258025468107 0.2565907092181813 0  0.1300647302703173 0.0508462728378621 0  0.7738123537510222 0.2761231499240648 0  1.203125 0.0366132337404304 0  0.5444207041612499 0.111205399508622 0  0.8016457771828226 0.1964238426015905 0  2.072662025974815 0.2975086504196739 0  0.4019040438866802 0.2103993403217561 0  0.4677372330974851 0.04827477407630658 0  0.8677218578847617 0.1432970430140788 0  1.058011122005847 0.2758866204059919 0  0.4429405887974043 0.2746184809910084 0  0.5843750000000001 0.03726989681835222 0  0.6318596133730142 0.1128692182767254 0  0.4862628454464408 0.2957029785303028 0  0.7805186758662764 0.3673578380827891 0  1.887722846421017 0.1760882698830035 0  0.3498893058880703 0.256189258793856 0  1.472640588990488 0.1118278026240017 0  1.865937103925594 0.2604137786483804 0
[...]
<PointData  Scalars="f_43"> 
<DataArray  type="Float64"  Name="f_43"  format="ascii">4.3356523109229783e-01  4.6402983423292687e-01  -4.4790539477257808e-10  1.5343150861823038e-09  -3.5051518896955119e-01  -3.1459615391044665e-01  -3.3771081421107191e-01  -5.0523135104271255e-01  -9.2247247994450721e-01  8.7351877323991522e-01  2.0074393209448074e+00  4.1112327842342589e-01  -1.1472862778019643e+00  -4.9750113649695804e-01  -2.7105361838619152e-01  -2.4433649411725392e-01  -2.7673103469849608e-01  -4.4498605836615251e-01  -1.2109179431633922e-01  -9.9101230034804769e-02  -2.8167903264267896e-01  -1.2865340077997103e-01  -5.9019554978740299e-02  -5.1433623473869350e-01  -7.3687873398015427e-03  7.7565775611306953e-01  1.5951098894090156e-03  -1.9048276455407867e-01  -1.8780768155153563e-01  1.1240331313668138e-02  3.1669331212467192e-02  1.4125454049492623e-02  2.6247458705556420e-02  2.3443147523919388e-02  1.9214837179696700e-02  4.6163547084251246e-03  1.6721558150350910e-02  -7.7530520160562791e-02  -7.8099245074669851e-02  2.2743651781505253e-02  1.6599705577394160e-02  2.2958594987828609e-02  1.6345431657620424e-02  2.8455640869691917e-09  -4.7432585412928330e-02  6.4178327804920677e-03  2.2967806475973113e-03  -1.4298154499737203e-01  2.3982097846440790e-03  3.4679052012203408e-09  -1.3588383564718129e-01  1.8690426324614751e-02  2.1409435820768048e-02  1.9124203383647100e-02  1.9691186370392216e-02  3.0338274485816562e-02  -2.1756320761749819e-02  -4.1193891637220509e-02  -1.8166490966846577e-01  3.8076703708223919e-01  3.5833443435883011e-01  -1.6653782314685750e-01  1.8705520375132689e-02  8.0361285133185561e-03  8.6587017034787384e-03  2.5241357818470356e-02  1.6104304467694126e-02  9.6662873687059434e-03  1.8021431071754301e-02  -2.4562990175771018e-01  5.1758011280862220e-03  1.2731179419141164e-03  2.0495037006628435e-02  -3.0676158120379195e-02  -1.5894997437274048e-02  -2.8384626376867278e-01  5.3015170898977693e-01  5.6397167572514062e-01  -1.7380538348056887e-01  -9.4121979774313164e-02  -2.0007730086747305e-01  -8.9921787460075925e-03  -2.7423999576874527e-03  3.7240391825988125e-03  3.2275462013271812e-02  2.4931035248881916e-02  -1.2534705934757820e-02  -9.0921166306867945e-02  1.5803393423777550e-02  2.4507782640484348e-02  2.6305157129621747e-02  -2.8009913693335629e-09  1.0238255116654885e-02  2.0795630587512381e-02  1.6516577714951047e-02  3.1274062182105374e-03  -3.4379073482288258e-01  -2.0911661718212837e-01  1.7480463147455879e-02  1.0500560223010156e-02  4.7362265557579364e-01  1.6152209468391358e-02  2.7975456851741187e-02  1.6202902195083957e-01  2.9139012838074522e-02  -1.8930749536704741e-01  -2.0485750479401571e-01  5.0255496090297558e-01  -1.6220804853572562e-02  1.2601374864248662e-03  -6.1280450671561517e-03  9.9158238076265375e-03  2.0853740232411191e-01  1.6997142051180289e-02  -1.9571341050609797e-01  -2.0148570683862013e-01  1.4982708559699161e-02  -2.1303233267317559e-01  1.3704303917618899e-02  -1.3823666004897778e-01  9.8096303828361237e-03  7.2564128726603080e-03  -1.5571772949134149e-01  -5.9420444181416905e-02  -2.1036714197365566e-01  2.2514321432917872e-01  9.0813295580019748e-01  7.3069463597097817e-01  -1.6725596330051706e-01  1.5364656149559380e-02  2.4670949362528061e-02  2.5858014563805994e-02  2.0369806886064594e-02  1.8625385917720987e-02  -7.7514830362623707e-03  2.6312516695659149e-02  2.6432172294766410e-02  -1.7624022995336647e-01  2.1223967051112128e-02  2.4007486023769627e-02  -1.2413018885013779e-02  4.2140082576957011e-01  4.4573747426365518e-01  2.2462364522059533e-02  1.3904079388148421e-02  -2.6646854312073268e-02  1.3275039976306953e-02  1.1049145269093305e-02  1.8539386509033945e-02  2.9255284709583305e-02  1.9805837952956130e-02  -3.3018768488803528e-03  -1.0340089713305292e-01  -1.1154734901947438e-01  -4.5076638813344727e-02  -1.2625203373764399e-01  -9.7088993344570954e-02  2.0818381564335575e-01  4.4970898562711981e-01  4.0340385331096833e-03  -1.8362652368482821e-02  -1.6917760480086594e-01  2.4836610789196741e-02  3.1642922172891667e-03  1.1576977699716681e-02  -3.3070961317678793e-01  1.1822955630199757e-02  1.0177143725764275e-02  9.9848465824194516e-03  -2.0279165756514114e-01  -2.3152204492746814e-01  -1.3881937267146652e-01  1.0584750747656904e-02  3.3938895267923155e-04  8.1893631133325914e-03  1.2752095091308636e-02  2.5062095555947270e-02  -1.1948688821663363e-02  -3.3543739994327721e-03  5.9616259370352280e-03  4.7230911425182615e-03  5.4479612891150889e-03  1.9089046982818550e-03  -4.9310278093598732e-02  6.7193412437412531e-03  -3.4233652116714952e-01  -6.9441601568804787e-02  7.5928618032934502e-03  -1.7364398355724699e-02  -9.4418116924150031e-02  2.5817428918631754e-02  -1.5725346885262304e-01  -7.3865084563568106e-02  1.2986035696607562e-02  -1.3106331536883195e-01  -1.6817888840193179e-01  2.1763650607949835e-02  -3.3947897050617426e-01  -3.5694747800063181e-01  5.7491799973437398e-03  3.2124020202690555e-02  2.2455971230055990e-02  1.1329063178847142e-02  -2.8004522686750948e-02  2.0210666672220632e-02  2.0397499618332475e-02  2.9705394891913997e-02  1.7837478580983106e-02  4.7695924138272972e-01  -6.2131046151650306e-02  -1.7761533778747471e-01  1.0435349475351892e-02  -4.6485073401679101e-02  -1.2479270750520466e-01  1.1004779933240828e-02  -2.4172165197468484e-01  9.0224811229205025e-03  -1.3578398718977139e-01  3.2600808699068513e-02  2.6859792225053174e-02  -1.2125188351805181e-01  -2.3907348459671734e-01  1.1416243488987751e-02  -7.9910028518139203e-03  1.1452554802446589e-10  2.3334975293069386e-02  4.6928258462551626e-03  4.6915176278340243e-01  1.8465474253300015e-02  1.1277791208938277e+00  1.6836173466337704e-02  1.7231157883339083e-02  4.1747644902459170e-02  1.0964489728929121e-02  -9.4296088672827670e-04  1.4484604229192630e-02  2.5965613079118790e-02  2.6294799756852439e-02  2.3363268718567396e-02  2.4654519868220960e-02  -1.4899188107744141e-02  -1.0447351807683258e-02  3.4107771859421317e-03  2.9960336927969786e-03  2.1891676658149624e-02  1.8212275633627806e-02  1.9552941872384790e-02  -9.2382647780959878e-02  1.3769472477969552e-02  2.5731721373392281e-02  -6.7149966567314158e-03  5.3408814550816299e-03  -3.3813261570822234e-02  2.3688989942468583e-02  4.7013165598639267e-01  -5.6110588066090046e-02  1.5430460881538358e-02  -9.2492114144908106e-04  2.4133860760404316e-01  3.3272050251569918e-01  -4.5563807135149121e-09  1.1027826254326689e-01  3.4854220590668145e-01  3.2011867887073921e-02  1.2765267545267566e-02  1.3980726970661295e-02  -1.0947694748829084e-01  6.8138107711847218e-01  3.4679052012203408e-09  6.3427950232227219e-10  7.0757969020849021e-01  2.0358951448514594e-02  -1.2885949153537238e-01  3.1123470856844030e-02  4.1275814805741845e-01  -7.6849078161974919e-03  2.7328495856890612e-02  2.0270353814832495e-02  2.0078394224576291e-02  -3.8268067286180334e-03  2.6195798198938539e-02  -1.8253483624808711e-01  4.0812584991660834e-03  2.6706199294084181e-02  2.7375437678577416e-03  6.5079985306965882e-01  -1.8058150601348788e-01  6.7708073992567819e-01  9.1344834756388674e-03  3.8631568877150613e-01  -5.6376219187466790e-02  1.1189118759205986e-02  -2.6498814147095606e-01  -1.0166356478379282e-02  7.5545949832631749e-04  -3.2294332559497152e-01  -1.9360938855326032e-01  1.3139224942684434e-02  1.4353458651455323e-02  -2.0456411089426044e-01  -1.8143603983687562e-01  -2.0128967115692584e-01  -2.1297531956885810e-01  -8.9759378979058543e-02  3.0875036544639354e-03  -3.4862395084660647e-01  1.6044862287263963e-02  1.9307159924826643e-02  1.2480289265012750e-02  2.2629311156756909e-02  -1.1942084708702140e-01  1.8803027850520772e-02  -1.1912886090318654e-01  -1.6528654604830040e-01  -1.1058872903061584e-01  2.3244067021214843e-02  -2.1300841897263278e-01  -1.8724288289244542e-01  1.1533218075647979e-02  -2.8162078117684364e-01  -2.2991588798614598e-01  1.8422791074393367e-02  1.2530335155829884e-03  2.1874027737423734e-02  -4.5136786714934686e-02  7.2903276715143069e-03  -3.3515985901985662e-01  -3.4702667039943952e-01  2.5101798733310570e-02  -3.4872571316841455e-01  9.1554452842701151e-01  2.0295854845240449e-02  8.5078774264966373e-01  1.2882978276356013e-02  -4.9422407231954910e-03  -3.3297797116564380e-02  -5.8328805587548656e-03  -1.5905603251741862e-03  1.6848664763627203e-04  -1.8493687289242108e-02  1.4091518285114547e-02  1.7677628712635871e-02  -1.4648120275931537e-01  -2.7643474410579083e-01  2.0712577019778480e-02  -6.7945894642713806e-02  1.2720680716003050e-02  2.6861269286756233e-02  2.0694856843915314e-02  1.7952642078646001e-02  1.7992813582816111e-02  -1.9147413321666695e-01  -1.8661719241506319e-01  2.7170528550003251e-02  2.5930661534062704e-02  2.5423267644978507e-02  7.1920611595086069e-04  -3.7797848498215322e-03  4.3107222577551024e-01  -2.9138759023993277e-01  -2.7010822587242671e-02  8.6407179967111815e-03  1.9186059936948399e-02  8.4573504963138500e-03  -7.2080102880905925e-02  2.1498839361025077e-02  1.5563865564289989e-02  -4.2297924342381978e-02  2.4506197539158652e-02  1.9942994774877685e-02  1.2298287111755048e-02  3.0457530409170491e-01  1.1994435545343905e-02  -1.9562828913766453e-01  -1.9350373516905170e-01  -9.9365432964998862e-03  2.9330065330566518e-01  3.6228881604542383e-03  -2.0849345845544834e-02  2.2063065470735485e-02  -2.3935668371764809e-01  8.4506964703165918e-03  -3.7388524536809383e-03  1.6818634221775042e-02  1.7908096307145682e-02  -2.5984855889820557e-01  -1.4365572933278845e-01  1.1539729770689551e-02  -1.4102541267736249e-03  1.7367347717376001e-02  1.3881757321105768e-02  2.4854005178775489e-02  -5.2448786260710090e-03  4.2571001479700726e-01  9.8317333809321283e-03  -1.4259682916131811e-01  -1.9814579893774903e-01  -1.1130907192328751e-01  3.0038216046568184e-03  -3.2769276795634089e-01  1.8538562182933184e-02  -6.1124131587643127e-02  1.0656203380901732e-02  7.0756496739194669e-03  2.6852382760449304e-03  -1.3043289765806990e-02  1.7053528427429618e-02  2.5618842093690239e-02  2.6286087561928049e-02  2.6226587421651914e-02  4.6135308032643785e-01  4.3391851112578650e-01  6.3976505681117108e-03  1.7384023326033535e-02  -6.8170765840264616e-02  -6.3899701894129149e-02  2.6927679141105815e-03  -5.0515487232448949e-03  5.6599878183682817e-01  -2.3011473543152983e-01  7.0242762121746061e-01  -1.6696591590441268e-01  2.2115441557925501e-02  -9.1892538920374342e-02  -3.5780102151882195e-02  -2.4797836027032588e-01  1.6516554284548655e-02  7.7178279202644173e-01  -1.7634198651894720e-01  3.1881369991078618e-03  3.1283376170849003e-02  2.6353575522161116e-01  3.1102213741037145e-02  6.0646958984877741e-01  1.9675043056116701e-02  -1.2278248346795537e-01  1.4643641724506063e-02  1.7552727499230890e-02  2.5032711181508613e-02  2.6707355696161075e-02  2.3709715842053562e-02  2.4906498678177045e-02  -4.2418540370960344e-04  2.3758962963590848e-02  2.5123040719678146e-02  -1.8897737186817218e-01  5.8113711521138173e-03  -1.9918761747124131e-01  -1.5730534792815767e-01  1.2095795723715811e-02  2.3677639578864755e-02  5.3826836852328774e-01  1.9221344945014870e-02  9.2807800243923065e-03  2.4267397997677409e-01  4.4489997433728573e-01  -3.0063256394497771e-02  5.0731279992757361e-01  1.5778467890840038e-02  -5.6620136310946430e-02  2.1801985948616678e-02  -1.9507068823612064e-01  2.9581093887646733e-02  1.5540055742773321e-02  -1.7475229811558027e-01  -5.8021432230668052e-02  -5.3120186983226202e-03  3.8585527968814097e-03  2.8402478174511876e-02  -5.9131237563104571e-03  -3.3567300361072548e-02  -1.4045350177069899e-02  -7.4738201008531426e-03  1.7132262560878488e-02  2.0262799900847721e-02  -3.3396016033179110e-01  2.0055065623753969e-02  3.5877677287792400e-03  7.3434512366222571e-05  -4.7198890634603026e-05  6.1185968774200711e-03  -3.4289482336058432e-03  1.5174041317991431e-02  9.2207834490031851e-03  1.6838408727603421e-02  5.2168466768827545e-03  -1.9519258273633447e-01  -1.8953942928178927e-01  1.0673548029654328e-01  -7.0752825479836981e-02  -1.1006267098074037e-01  -1.9173144511440365e-01  -1.6755208351520220e-01  1.3722557940491640e+00  -1.3201437072032965e-02  1.6527608441213557e-01  1.0393551773903586e-02  7.2547361717473216e-03  8.8767795346921460e-03  1.3923863619612434e-02  1.8377238117132981e-02  1.3895288359631013e-02  1.8528593696147514e-02  -2.4777147025958316e-03  9.5814865022657621e-03  -3.1559709154769383e-01  -1.9210126700316982e-01  7.0630069037297873e-03  -3.3011531986080200e-01  -2.5580997723870980e-01  1.8911684477394317e-02  -2.8420840558777749e-01  -3.4466709471232992e-01  2.5805663609947266e-02  1.2854639091864638e-02  5.6168069522603732e-03  3.5711680292756795e-03  1.6008848000620579e-02  8.5057387555744508e-03  -2.1522725995111880e-01  5.3805927348479455e-03  1.5278464455972083e-02  2.2795285655452611e-02  3.1508472426814830e-03  2.5591692040745084e-02  8.4734269405810705e-04  1.7817515748750066e-03  2.0561736369472585e-02  3.1293164895413790e-02  1.6206696504267586e-02  -7.2775632068324053e-03  2.2902142492227325e-02  -1.2718190618973654e-01  -3.1763838036131163e-02  -5.0695689970170439e-02  2.4969202327838193e-02  -2.6876682319696937e-03  -2.4734187198322596e-03  -1.0298997676626408e-02  -1.8144544126926862e-01  -1.6045724104840328e-01  -1.3821149061713384e-01  3.9839133287841733e-01  1.1944539071844351e-01  -8.9339921661806751e-02  -1.8274479966644630e-01  -1.8010491751731253e-01  -9.5054062049452839e-02  -4.3765493585753330e-02  -1.0767244239413931e-01  -1.5008771528786363e-01  -1.5243253269544299e-01  1.1667964003380321e-02  2.5601681337218334e-02  3.5671563198750363e-03  2.3698469268001433e-02  2.8339716645962880e-03  1.4476815666382970e-02  -1.5835742246006514e-02  1.2749754455783881e-02  -1.3966899481666559e-01  5.1932103711751542e-03  1.4891782636517310e-02  2.3300066920374760e-02  2.0215005252315874e-02  1.6990007817236846e-02  1.7789932622195383e-02  -7.8747491862512065e-02  -5.2252437224695795e-02  -3.1064476261660096e-01  -3.3002979639352503e-01  -1.5608950532010110e-01  3.5543951168960693e-03  1.8720630846337960e-02  1.3831553947047177e-02  2.3911537809832555e-02  4.0111734760398504e-01  1.2987055970048298e-02  3.0255310923053245e-02  3.3566224631641550e-02  -9.1167511253865657e-02  5.3456662208815975e-03  2.9640108600388820e-01  3.0424439876916082e-02  2.7267376575627104e-02  1.0249759573400954e-02  1.8563703654996298e-02  5.7192892786667856e-03  -1.2757324795428676e-01  1.0174902465344044e-02  -5.9686461792518672e-02  1.5247398498868813e-02  7.5408993654816868e-03  1.8189482389273023e-02  -1.5229037948485688e-01  1.7027781063625978e-02  3.1457913737301085e-02  7.4580401354709902e-01  -1.8382292064322442e-01  -9.8217427901590697e-03  2.4888360904484885e-02  -2.5896067011932011e-01  -5.7318411079959636e-02  2.1543201726833697e-03  1.3089325539510071e-03  2.3580036636716682e-02  8.0947107235721261e-01  7.7548871767146909e-03  1.8621340563548017e-02  4.9491101233917817e-03  3.8558881989745014e-03  3.7666009812412449e-01  -2.2863617359932687e-03  3.3755041405646125e-01  -4.3680466063321655e-02  7.4311311527351515e-03  -3.4417448636200970e-01  -3.5358012227105801e-01  1.9566093220399604e-02  -3.4652244602353738e-01  -1.9140029422364476e-02  2.1205771559443070e-02  9.0457786137225198e-03  1.8041038111197699e-02  2.8647855575592196e-03  1.1102953843135165e-02  -4.7232893965704929e-03  8.5633841357114510e-04  -2.1978262094082671e-02  2.3312533320260509e-02  -1.8840162973910815e-01  2.3817909589992636e-02  2.6660431892905786e-02  1.7653934357316492e-02  -7.7605792627843409e-02  -1.0340330577490868e-01  -8.4428535096351981e-02  -5.7427814086412517e-02  2.2433367436036487e-02  2.5140311680867673e-02  -2.5054823547244859e-01  -1.6138096180890957e-01  -1.8753670845913697e-01  2.0361857172583517e-02  5.9063955789911837e-01  2.0059979534877814e-02  3.1961182045633857e-03  -9.9281240084815620e-02  2.6961980767880762e-02  -2.2622401369448344e-01  1.9295036624018359e-02  -3.3652996894050141e-01  5.4915423745307765e-03  -1.4117620885689119e-01  -1.7029852684789742e-01  -1.9986245052059254e-01  1.6232182040007058e-02  2.3863547214883415e-02  2.2568677550165006e-02  1.8339245700519424e-02  1.2128709376807118e-02  -9.5163792667716254e-02  1.1311954628927132e+00  1.5312528643057587e-02  -2.3166834541924194e-02  -3.1208319783392507e-01  1.0648791932059991e-02  1.0211051102055554e-02  1.8062183069250923e-02  1.5652015914721144e-02  1.9319349260790632e-02  2.0570243255356977e-02  -1.1496544077539198e-02  1.7916899337925635e-02  1.3501256826687968e-02  -2.5661187532427219e-02  -4.0555843449768529e-02  4.6443112290769240e-01  4.6269009107351072e-01  2.1437843448940466e-02  -2.6725612728881770e-01  4.2394183582337543e-03  -2.7124538327585085e-03  2.4686634245496202e-02  -4.5134627110344355e-03  6.8872449073718277e-03  2.8994448976754603e-02  6.1117639841459070e-01  -4.0164099666954479e-02  2.8448741572814372e-02  7.8959718574562257e-02  2.5270237391808048e-01  -1.1360916113108940e-01  4.6021361464854173e-03  1.3653581532167071e-02  -2.3968061982372293e-01  -2.2362837320415657e-01  -3.3966827614428252e-01  2.3559477414661033e-02  2.0113249229766827e-02  -2.5484281357995825e-01  4.4709316460428833e-01  7.5931249306217186e-01  1.0003154965288353e-03  -1.4464276590307351e-01  1.5133866920624593e-02  9.8414987543615114e-03  2.5857478636846058e-02  1.9408268154011712e-02  2.8455640869691917e-09  -2.0094029195595686e-01  1.0147863908903427e-02  5.0622518456882129e-04  -2.0792366306227389e-01  -1.9559721378655842e-01  -1.0261444826680549e-03  -1.3735921162525627e-01  3.9798529971192376e-01  3.8285918278659703e-01  1.7580887045681105e-02  2.5809090552279878e-02  3.0898282265002974e-02  3.2288474476858953e-02  2.9661598559843336e-02  1.8183347864590790e-02  1.9956688777550365e-02  -1.7227554706209228e-01  2.3467179187724833e-02  3.0907643939696822e-02  8.9958558014081348e-04  -4.6054388209770319e-03  -7.6360026996435001e-02  -2.1428346895130324e-01  7.6275684305484167e-03  -1.1863499142721065e-01  5.2019159993133744e-02  -2.8009913693335629e-09  9.4753514587338425e-03  1.0844947352496165e-02  7.9341176295175675e-03  -1.4903157796881505e-01  2.4975384562489291e-02  -7.8959607754342971e-03  9.8253155807998226e-03  1.8082299492752692e-02  2.8515439584389621e-03  -3.0656023161253318e-03  1.0183013268637981e-02  -5.7674691705515684e-03  -7.8293476871785835e-03  -9.9622974956744843e-03  1.6261755047519585e-02  1.2517334051535541e-02  -3.4355774262009364e-02  4.0202002182144447e-01  -1.1248636333823338e-02  1.7330625263952695e-02  -5.1794041493937362e-02  -8.1332211206295284e-03  -8.3303419575651710e-03  -5.6976435342158986e-03  -1.9789598792492130e-01  1.5423837366559664e-02  1.4117739776299407e-02  1.6120991415306794e-02  -2.2026324362158711e-01  2.6251627689963423e-02  2.4016855460832143e-02  2.1277468647030225e-02  -1.8414492203109517e-01  -1.9591234836421892e-01  2.4524925686012281e-02  -2.0735530222223969e-01  -2.4259054384974618e-01  -2.3556342813548614e-01  1.5575151756260940e-02  6.1366750292158835e-03  2.3130769083410344e-02  -4.1479299176117118e-01  9.8932374274942909e-03  -1.3271561741168864e-01  2.7254826431855800e-02  3.2845557129516656e-01  -2.4339316287779626e-02  -5.3145210800694832e-03  -1.1099585302648660e-01  2.8455640869691917e-09  1.0861060136015757e+00  8.8672506263218298e-01  -2.4131842940930747e-02  -5.2358218747519357e-02  -1.2190098888836379e-01  2.4124698576235674e-02  1.8300182246717117e-02  -1.1395251998143686e-01  3.1031456548615186e-03  -1.7451407714972922e-01  5.3083466197048323e-01  4.7632605432491543e-01  4.8086933294742024e-01  4.6764000892476976e-03  -1.2573303568002315e-02  2.7640515806753568e-02  2.3678623293822108e-02  2.0789155090570135e-02  1.2946318681702115e-02  5.3688409586794905e-01  1.0361217099927296e-02  -3.6885357841776001e-01  2.3816730694719099e-02  1.5141310913801343e-02  1.8149555847668464e-02  3.6244775853250168e-03  3.9251695250713380e-03  -1.8834037908211071e-01  1.2425596453433357e-02  -1.97594644