<?xml version="1.0"?>
<VTKFile type="UnstructuredGrid"  version="0.1"  >
<UnstructuredGrid>
<Piece  NumberOfPoints="2426" NumberOfCells="4534">
<Points>
<DataArray  type="Float64"  NumberOfComponents="3"  format="ascii">0 0.41 0  0 0 0  2.2 0 0  2.2 0.41 0  0.2404508497187474 0.2293892626146237 0  0.25 0.2 0  0.2404508497187474 0.1706107373853764 0  0.2154508497187474 0.1524471741852423 0  0.1845491502812526 0.1524471741852423 0  0.1595491502812526 0.1706107373853764 0  0.15 0.2 0  0.1595491502812526 0.2293892626146237 0  0.1845491502812527 0.2475528258147577 0  0.2154508497187474 0.2475528258147577 0  0.5404508497187474 0.2293892626146237 0  0.55 0.2 0  0.5404508497187474 0.1706107373853764 0  0.5154508497187473 0.1524471741852423 0  0.4845491502812526 0.1524471741852423 0  0.4595491502812526 0.1706107373853764 0  0.45 0.2 0  0.4595491502812526 0.2293892626146237 0  0.4845491502812526 0.2475528258147577 0  0.5154508497187473 0.2475528258147577 0  1.1 0 0  0 0.205 0  1.1 0.41 0  0.55 0 0  0.55 0.41 0  0.275 0 0  0.275 0.41 0  1.65 0.41 0  1.65 0 0  1.375 0 0  1.375 0.41 0  1.925 0 0  1.925 0.41 0  0.8250000000000001 0.41 0  0.8250000000000001 0 0  1.5125 0.205 0  1.7875 0.205 0  0.9625000000000001 0.205 0  1.2375 0.205 0  2.2 0.205 0  0.7560964076246335 0.2151713709677419 0  1.99375 0.2152743902439024 0  2.0625 0 0  0.6875 0 0  2.0625 0.41 0  2.2 0.3075 0  0.6875 0.41 0  1.7875 0.41 0  1.375 0.1486128048780488 0  1.5125 0 0  1.7875 0 0  1.5125 0.41 0  0.9625000000000001 0 0  0.9625000000000001 0.41 0  0.4125 0 0  0.1375 0 0  0.1375 0.41 0  0.4125 0.41 0  1.2375 0 0  1.1 0.1486128048780487 0  1.2375 0.41 0  1.65 0.1486128048780487 0  1.126715909090909 0.2793064024390244 0  1.676715909090909 0.2793064024390244 0  1.348284090909091 0.2793064024390244 0  0.34375 0.3032389320646208 0  1.894702181800738 0.1282910975492754 0  2.092797818199262 0.1282910975492754 0  1.85625 0.3075 0  0.8630851210521902 0.286932093388664 0  0.89375 0.1025 0  0.35 0.1090282786671641 0  0 0.3075 0  0 0.1025 0  0.6526217841291382 0.288229645480046 0  0.7562500000000001 0.09660248895515888 0  0.6568633732316684 0.1557582854763441 0  2.099172119769978 0.25625 0  1.002356446954348 0.1010393851523063 0  1.99375 0.08395950269330846 0  1.459960956013612 0.3075 0  1.569025960719943 0.2986889805672169 0  1.03125 0.3278689922742084 0  0.75625 0.3247156761655783 0  1.959375 0.3126371951219512 0  1.749222215368287 0.1025 0  1.275777784631713 0.1025 0  2.2 0.1025 0  1.225938124459196 0.3075 0  1.550777784631713 0.1025 0  1.44375 0.07430640243902442 0  1.16875 0.07430640243902437 0  0.3528655045338512 0.2063263890916129 0  0.5890337614812103 0.08775733857679162 0  0.8504912436891263 0.190072835691683 0  1.899250267340833 0.2229966846119207 0  0.1020898364287272 0.3140258291809757 0  1.766482954545455 0.2934032012195123 0  1.051658316544432 0.2265720188842194 0  0.2 0.3400647632937836 0  1.421109702350723 0.2261157654379721 0  0.4812500000000001 0.41 0  0.4324401666997539 0.3216425986889796 0  0.098916018031319 0.09171660955420841 0  0.9508742791313441 0.2921736960864468 0  2.13125 0 0  2.118919042110979 0.3422084711244843 0  1.30625 0.41 0  0.20625 0 0  1.597888256393107 0.2173787389261347 0  0.4812500000000001 0 0  0.4324082967851086 0.08384041677422771 0  1.829299675393195 0.07400700849299596 0  0.568219932524165 0.3212274660843853 0  1.71875 0.41 0  0.268005226542646 0.08512186835670006 0  1.16875 0.41 0  2.038220665644273 0.332420740103091 0  0.6678017527842831 0.07701763866051195 0  0.89375 0.41 0  0.5111435174287687 0.07335351331957608 0  0.176193934632343 0.0734896648625108 0  0.07390688010811153 0.1697064032433452 0  0.05452951551825875 0.25625 0  0.61875 0.41 0  1.452769549894695 0.1548122580621249 0  1.369219062229598 0.07430640243902442 0  1.30625 0 0  1.720943423819132 0.1714577452753128 0  1.157188124459196 0.205 0  1.094219062229598 0.07430640243902437 0  1.304056576180868 0.1714577452753128 0  1.67579304192913 0.07430640243902437 0  0.2672907219039591 0.3037570723459566 0  1.209670467133757 0.1362100266964769 0  1.58125 0 0  1.03125 0 0  0.06875000000000001 0.41 0  0 0.35875 0  1.58125 0.41 0  1.631724228912893 0.3381867502687533 0  0.8240147050827157 0.1225233169495944 0  1.825608881788174 0.14499488549201 0  1.85625 0 0  1.44375 0 0  1.44375 0.41 0  1.85625 0.41 0  2.13125 0.41 0  0.7562500000000001 0.41 0  0.7562500000000001 0 0  0.89375 0 0  0.34375 0 0  0.34375 0.41 0  0.20625 0.41 0  0.06875000000000001 0 0  1.16875 0 0  1.03125 0.41 0  0.61875 0 0  1.71875 0 0  1.99375 0 0  1.99375 0.41 0  0.3972301426712326 0.2593842555611471 0  1.340625 0.3489494290853124 0  1.134375 0.3489494290853123 0  1.700180620188976 0.3438659752031281 0  0.5003922072260507 0.341765274319271 0  0.6212513815748759 0.2209216137134851 0  0.6885607720119526 0.215393731583638 0  1.033412357328477 0.1612902025713047 0  2.135782184673599 0.07126652247502523 0  1.668441847249787 0.2129203728327609 0  1.295782514339747 0.2378437748815763 0  1.409375 0.3520314716057996 0  2.129248544730567 0.1906135162504124 0  2.060771381434487 0.1989445750470348 0  2.013252586573865 0.1496169464686054 0  1.942766402200229 0.1734448904596831 0  1.895522487186454 0.06076163953489683 0  2.069553871656643 0.06605731020975725 0  0.9281250000000001 0.3539050257418612 0  1.274680914880868 0.3520219391081363 0  0.3030138498135347 0.2488370856812789 0  0.8223773249563684 0.341761430177996 0  0.9018164060227267 0.2326477848736739 0  0.8143027982392851 0.2440265179987191 0  0.7225087161029304 0.2699907246386231 0  1.614713220494657 0.09473434380863296 0  0.378125 0.3566194660323104 0  0.309375 0.3566194660323104 0  1.72990325744076 0.2380068107952482 0  0.6915936999299305 0.3429472631234433 0  0.6268087624932918 0.3466455500035671 0  1.356580098625191 0.2120393231351682 0  0.3060160055995138 0.1590148921620778 0  0.3954648733249218 0.156380553890791 0  2.034370752044885 0.2668681600792073 0  1.51768709249349 0.3426260931494756 0  1.561883724969884 0.1650446847858835 0  1.197344062229598 0.2523725417393646 0  0.9281250000000001 0.05124999999999999 0  1.804085235518364 0.3468178408964637 0  1.817887819205233 0.2589243285818559 0  0.9107805776841645 0.1653834539923287 0  1.905897727272727 0.3485060975609756 0  0 0.05125 0  0.844212276491354 0.0614201194265309 0  0.378125 0.05244637078450034 0  1.008571329007178 0.2705955969954818 0  0.7724048032149464 0.1559079561351474 0  0.7203054377831548 0.04941826955193545 0  1.192836486056382 0.3562350748565544 0  0.5967108020713719 0.1479294686523888 0  1.28257088594801 0.2944411014911587 0  0.7041890234548132 0.1222025174424443 0  1.474860187679412 0.2504218616229368 0  1.406767003493824 0.2829282258560709 0  0.3201325899091991 0.05890121548989159 0  0.5979220912872258 0.2727591995766724 0  1.845656689180403 0.1998310418452388 0  2.144958525570388 0.2909790873294231 0  2.2 0.15375 0  1.57794966442982 0.3540357145964566 0  0.9483181579620558 0.1214693369582054 0  0.0496154796471391 0.333125 0  1.508991196088596 0.1421783375065625 0  0.09776612425612034 0.2204896805326566 0  1.50436820029908 0.06143401634903343 0  1.223857000523521 0.0823554862453532 0  0.2531953886959507 0.3582003209055908 0  1.153316824384777 0.1289850171317837 0  2.148922302309752 0.1258841779285271 0  1.621993280276081 0.2841214267927899 0  1.550118654119087 0.2461998729100966 0  1.327182649291491 0.1216967252533594 0  1.753125 0.04556020050186112 0  1.271875 0.04556020050186116 0  0.9824282234771738 0.05051969257615314 0  1.039510847866381 0.05683351822678641 0  1.94956388244759 0.1180512551534177 0  1.949997712993411 0.04965831614304109 0  1.771961817615021 0.1530278789497521 0  1.909246823951428 0.2812757146784527 0  1.101974016627944 0.2038045618205013 0  0.7906250000000001 0.0444674049654372 0  1.948575539857022 0.2445328248721197 0  1.697271520964565 0.1233917627620729 0  1.065625 0.3689344961371042 0  1.085849084308977 0.3170853572226867 0  0.9840604787624379 0.3582077516409966 0  1.577403511714593 0.05463601888079143 0  0.05622663515370135 0.05493816910862376 0  0.8762396958822678 0.3392249777398821 0  1.751571320346033 0.3651102912045228 0  1.055327852410105 0.111864799513911 0  0.1583785085108421 0.2994699345738728 0  0.1455283439499995 0.3542795598723423 0  2.2 0.35875 0  0.225705107073232 0.05084786997482401 0  0.1455852234589313 0.1166494778469164 0  1.466879772203159 0.3611261772912453 0  1.990280163552011 0.3564754268533217 0  1.17471064520912 0.2990917256188288 0  0.7221925551074015 0.1739659241003985 0  0 0.25625 0  2.2 0.25625 0  2.2 0.05125 0  0 0.15375 0  1.853978576207987 0.35875 0  0.21965520498276 0.1015543880164422 0  1.515638456102889 0.2882700110184686 0  0.09048297387599738 0.3637717362208066 0  2.150453692751374 0.2387066338105111 0  1.323782677156475 0.04897634338873398 0  1.409375 0.03715320121951221 0  1.406484531114799 0.1087852750766809 0  1.134375 0.03715320121951218 0  1.627401732573545 0.04552157221025036 0  0.446875 0.3713289093361426 0  2.045405893604797 0.1105340662939892 0  1.255408269734577 0.1577307500159216 0  2.028125 0.03707597992059326 0  0.04420832937638274 0.128125 0  0.5817551710628505 0.3702615006034757 0  0.1197849154434487 0.2663398672460083 0  1.248258025468107 0.2565907092181813 0  0.1300647302703173 0.0508462728378621 0  0.7738123537510222 0.2761231499240648 0  1.203125 0.0366132337404304 0  0.5444207041612499 0.111205399508622 0  0.8016457771828226 0.1964238426015905 0  2.072662025974815 0.2975086504196739 0  0.4019040438866802 0.2103993403217561 0  0.4677372330974851 0.04827477407630658 0  0.8677218578847617 0.1432970430140788 0  1.058011122005847 0.2758866204059919 0  0.4429405887974043 0.2746184809910084 0  0.5843750000000001 0.03726989681835222 0  0.6318596133730142 0.1128692182767254 0  0.4862628454464408 0.2957029785303028 0  0.7805186758662764 0.3673578380827891 0  1.887722846421017 0.1760882698830035 0  0.3498893058880703 0.256189258793856 0  1.472640588990488 0.1118278026240017 0  1.865937103925594 0.2604137786483804 0
[...]
<PointData  Scalars="f_43"> 
<DataArray  type="Float64"  Name="f_43"  format="ascii">4.2299969442288143e-01  4.5319866575714968e-01  -2.1685154699761368e-09  1.4594345881554978e-09  -3.6108917492433784e-01  -3.2534571972098225e-01  -3.4859837695746337e-01  -5.1605986315253238e-01  -9.3360597792354849e-01  8.6231569314621737e-01  1.9967142082782909e+00  4.0094170897552950e-01  -1.1573928366014379e+00  -5.0811143493892363e-01  -2.8172062705423090e-01  -2.5485543870521160e-01  -2.8732172048204824e-01  -4.5405682448330859e-01  -1.2730693672179735e-01  -1.0610377105392044e-01  -2.9285430481062374e-01  -1.4362804069163418e-01  -7.4695998928118013e-02  -5.2682502818386978e-01  -1.3955400273299142e-02  7.6496268510001997e-01  -1.2222674917652668e-02  -1.9954220232302541e-01  -1.9975796344851582e-01  2.9522721883975075e-04  2.1243162419423187e-02  -1.1472444180838563e-03  1.4850486805301443e-02  6.5948946724422751e-03  2.2258240443007064e-02  9.5377789993696827e-03  1.6858898578200401e-02  -9.0243070965434422e-02  -8.6208902819653724e-02  1.2193538593732737e-02  1.1707961413803316e-02  1.5398793038980400e-02  -5.6472150617073532e-07  1.1418830897690517e-08  -6.3249549008700126e-02  7.0919533178671135e-03  1.2531224953203853e-02  -1.5041556384002019e-01  7.3256197972589258e-03  5.9333691969592273e-09  -1.4915239980997527e-01  1.2552329638428901e-02  2.5275928748741752e-03  1.3034222658391643e-02  1.3224945148229330e-02  2.2459627715289417e-02  -4.2308024186652401e-02  -4.2930408746656296e-02  -1.9231167656117720e-01  3.6996193419001022e-01  3.4775022264518296e-01  -1.7710247816038341e-01  1.6353893747904164e-02  4.6169546576753963e-03  -1.0960402637648685e-02  1.4777804637448527e-02  -4.8524993595265246e-03  -5.7103218796765946e-03  1.8462251549480373e-02  -2.5495939864996370e-01  3.6944890289228693e-03  9.6681414043854365e-03  1.6984809642982584e-02  -3.7368466288227660e-02  -3.1969800116305666e-02  -2.9620706027370747e-01  5.1957633746085408e-01  5.5315078312980870e-01  -1.8652432363172416e-01  -9.9654442191541917e-02  -2.0827322803655043e-01  -6.6724496493330192e-03  -2.4015825543003046e-02  1.3499753807113527e-02  3.1367759548012394e-02  1.2313102764363568e-02  -1.3819362932957742e-02  -1.0577461462415649e-01  1.8166473688721690e-02  1.7069326414414152e-02  1.9955990840274246e-02  3.7910341065928048e-10  -1.3088067488458671e-02  1.6708933054120575e-02  1.3547975497354213e-03  6.6605794288374558e-03  -3.5409571722859473e-01  -2.1823404046061873e-01  7.6710472271451077e-03  7.0956432852944534e-03  4.6305638900621215e-01  1.0860721273546906e-02  1.6924216573912895e-02  1.5147702831330090e-01  2.0346320210804698e-02  -2.0048617020466492e-01  -2.1651397149099319e-01  4.9172376375416726e-01  -1.6096294597526550e-02  8.3796027842846302e-03  -8.6911697075948144e-04  3.9241091354738078e-03  1.9769482864613289e-01  -1.7880510077784961e-03  -2.0563477461744728e-01  -2.1109827356565108e-01  9.9631976725210233e-03  -2.2488722261504271e-01  3.2416066893348038e-03  -1.4931003092647752e-01  -1.3264124338956476e-02  1.0221693129560306e-02  -1.6318520663440661e-01  -6.7135788966422610e-02  -2.1959133013747031e-01  2.1430994144436166e-01  8.9736735216310204e-01  7.2008586219567061e-01  -1.7987395566581357e-01  1.7480077339784407e-03  5.9457325102820046e-03  1.4001724279618310e-02  9.0823710810885548e-03  2.0534432633069772e-03  -1.5743927281831792e-02  1.6670282783581378e-02  1.3711200008118518e-02  -1.8650810025690231e-01  1.9292168006885470e-02  1.7137199784160468e-02  -3.0575155793765595e-02  4.1082787513436930e-01  4.3517300326389147e-01  8.2087911276064827e-03  -3.9668794451428197e-03  -3.6107019725414885e-02  5.0013143508500606e-03  9.0450641669739661e-03  5.7389292003979268e-03  2.9685975753489080e-02  1.5571828027104079e-02  1.7956694645025085e-03  -1.1724521225243374e-01  -1.1823086994298548e-01  -5.9201681476774230e-02  -1.3722862836677174e-01  -1.0744797145500443e-01  1.9764361665433020e-01  4.3888734978505228e-01  5.4159791810936353e-03  -2.1613348768438310e-02  -1.7742717311704048e-01  1.4326509406886515e-02  1.3020667132666079e-02  1.5494008954722600e-02  -3.4014558816325030e-01  1.3233773798671666e-02  -1.0253964105439472e-02  -3.1542957267644851e-03  -2.1451417452920649e-01  -2.4140350168205199e-01  -1.5109750184427898e-01  -3.6545801991285393e-03  8.9896978251792665e-03  -8.9591457935022864e-03  8.6294763066791826e-03  3.0019400736667173e-02  -3.6503064597450223e-03  -4.5726216265935087e-03  1.2205058621737925e-02  7.2704297261919027e-03  6.0963918626757109e-03  1.2101247980020099e-02  -5.3180556856981878e-02  -7.3552712186508596e-03  -3.5190114447894072e-01  -8.2785138700905730e-02  8.0520036909011179e-03  -3.1582243105305274e-02  -1.1251924970875267e-01  1.7192007867386731e-02  -1.6765177096444286e-01  -8.4160133931366468e-02  7.0823141943629122e-03  -1.4466034160637839e-01  -1.8078060964593420e-01  1.5124646345478823e-02  -3.5137772429251846e-01  -3.6898867220920700e-01  1.3285174903764321e-03  2.4061713359169793e-02  1.5382556552853390e-02  -1.1568122880995508e-02  -4.6267023604537244e-02  1.5340190012302959e-02  1.7496076004221841e-02  9.3877910397076741e-03  1.6020041017721830e-02  4.6612667397956292e-01  -7.0920262342457213e-02  -1.8854179632675258e-01  7.3256430686421351e-03  -4.9179234500633960e-02  -1.3160354842803434e-01  -1.5026201764689461e-02  -2.5237065807980708e-01  -1.7491854935550524e-03  -1.4050940208959808e-01  2.8155863952679116e-02  2.7832233402262301e-02  -1.3241858561730427e-01  -2.4960725585194174e-01  3.9526550682063939e-03  -2.8677143527276660e-03  -5.7079174925254164e-09  8.6786358025288824e-03  -1.6717507988323624e-02  4.5858591892730094e-01  1.1795260533330293e-02  1.1171379556656449e+00  1.1051751346311162e-02  1.8585863376102688e-02  3.1285633442388223e-02  1.0615685901164441e-02  6.7592519855710709e-03  -3.0785315341595272e-03  1.4852772337992075e-02  1.3088618883692768e-02  1.4757850046010070e-02  1.8149296731327938e-02  -3.7429097278297442e-02  -2.9281231703087367e-02  8.7907844160942123e-03  1.0428571626820496e-02  1.4358227237864030e-02  1.8548607833984807e-02  6.7437873763190152e-03  -9.8882649404949854e-02  1.3961286327655550e-02  1.6588672772770322e-02  -1.3386478988284644e-02  -5.4008068558536425e-03  -3.3521853113909580e-02  1.8243482575561236e-02  4.5930085100383178e-01  -6.5433417145968786e-02  7.9165199976319496e-03  -1.4511991281509025e-02  2.3080651843203209e-01  3.2214151566594396e-01  -4.4757903655258046e-09  9.9413406944684965e-02  3.3766067987580445e-01  3.0438645529796273e-02  1.6746238438779260e-02  -1.0799371218646865e-02  -1.1333576492312561e-01  6.7076269765222274e-01  5.9333691969592273e-09  -1.0951181120673248e-09  6.9680521717448896e-01  1.5528513738146848e-02  -1.3974652676466737e-01  2.4879285213864063e-02  4.0218471642157122e-01  -1.1590678661367956e-04  1.2840223745825313e-02  3.3045049132654665e-03  1.9267980573330534e-03  -4.7033992855682483e-03  1.5712877062937232e-02  -1.9342907985338795e-01  1.2439033540841303e-02  2.0993428966981375e-02  1.3457378658272087e-02  6.3999230908597116e-01  -1.9281570880563959e-01  6.6654144665981363e-01  -3.9822454724527173e-03  3.7550157885026691e-01  -7.3475729065741194e-02  1.3157420355842010e-02  -2.7451420713208891e-01  -1.9292183910312941e-02  1.1343828334950516e-03  -3.3353771664896947e-01  -2.0352175349001139e-01  -3.1862413461776528e-03  3.8966543817833339e-03  -2.1902869469064765e-01  -1.9012639943970708e-01  -2.0999719631818067e-01  -2.2648897583743466e-01  -1.0384155371648375e-01  -1.6127854365601824e-03  -3.5624221476577272e-01  4.5585993684298266e-03  1.7809241872729104e-02  -7.8036135197112359e-03  7.3531021448292660e-03  -1.2994262364630441e-01  2.3934826553733839e-02  -1.3274573843651710e-01  -1.7343616807688436e-01  -1.2442348707449187e-01  1.1851476296939013e-02  -2.2087530629208652e-01  -1.9522103762992998e-01  1.4765698237195703e-03  -2.9310491687954088e-01  -2.4027707540340201e-01  1.5075397975698351e-02  1.0630574735006138e-02  3.3680264516404469e-03  -5.7573951846581407e-02  1.1848624216556740e-02  -3.4569668379376617e-01  -3.5799802127670866e-01  1.6751494824017613e-02  -3.6190537413239759e-01  9.0469294807914136e-01  1.6775347396860651e-02  8.4010133056757375e-01  1.1662346534089369e-02  -1.0191585887908580e-02  -3.7226497239902116e-02  -3.2046931641125298e-04  3.6591909353985408e-03  4.6407108327675218e-03  -1.8197752053146908e-02  1.5651871526091838e-02  2.0390735406730235e-03  -1.5948599662016394e-01  -2.8749409401595982e-01  1.4718404122018485e-02  -7.8600609387600662e-02  1.4116792472384706e-02  2.5206437762588692e-02  1.2104893100618951e-02  8.7960866013417228e-03  7.1919444370426705e-04  -2.0327010211661151e-01  -1.9711377649848386e-01  1.5749613438680234e-02  1.4190577371827658e-02  1.3933425450313789e-02  5.8140468729457728e-03  9.0223969347326058e-04  4.2050521349825681e-01  -3.0348596203619982e-01  -3.7985123370387022e-02  -1.1611138078654938e-02  1.3088712390680530e-02  5.0150767632729382e-03  -7.8823135118009147e-02  1.6148000088278588e-02  1.7223286204746630e-02  -5.5412407684990492e-02  5.5609591420129507e-03  1.4726418353469222e-02  3.5845313536970349e-03  2.9376048679671257e-01  -3.5303120397618100e-03  -2.0512122822730616e-01  -2.0269924983765036e-01  -2.1527205095861594e-02  2.8272808676024552e-01  9.8813339160919236e-03  -2.2154152703509424e-02  1.1094365168660941e-02  -2.5155788171210375e-01  -1.3394323012584614e-02  1.9673051513511130e-03  6.3108811355248057e-03  5.0442457817392991e-04  -2.6989230222255367e-01  -1.5851385421933192e-01  2.0332096875397658e-03  -2.3773886929209002e-03  -8.6271064928299997e-03  9.3799650857111228e-03  1.7495440897805688e-03  2.3125701975896013e-03  4.1489850942116790e-01  7.0933151616238404e-03  -1.5007982196438338e-01  -2.1000986302485974e-01  -1.2638517795798271e-01  1.3132737315380392e-02  -3.3829775792358763e-01  1.6171758232633632e-02  -7.1686442019859326e-02  8.0296728415687295e-03  8.3814149268464748e-03  6.7832428491012790e-03  -3.4566219247700300e-02  1.0768429120158485e-02  1.5084010223446931e-02  1.3970746398774004e-02  1.5488895525369908e-02  4.5052338968647743e-01  4.2335369960798025e-01  1.0757942354473407e-02  -8.8655441556249415e-04  -7.9933328918990784e-02  -7.4880386519576389e-02  -5.4863251351454298e-03  -3.7794720111877390e-03  5.5542481017894552e-01  -2.4039101610241273e-01  6.9160854354323564e-01  -1.7689789214238347e-01  1.5575283865073803e-02  -9.4965813260039500e-02  -3.6244576789867519e-02  -2.5838853064339418e-01  6.9332910704993202e-03  7.6102100519021332e-01  -1.8728037030492531e-01  1.3438416732178654e-02  2.9536995646679345e-02  2.5296500118267712e-01  2.5024220110655603e-02  5.9587912756268635e-01  1.4853079949539673e-02  -1.2881697533724040e-01  7.9722147524781250e-03  6.8729298344432617e-03  1.7346388048311859e-02  1.7980841241379518e-02  6.2681453785054181e-03  7.5211017251398116e-03  -7.5900914944125146e-03  1.1660856142553133e-02  1.0441800287436524e-02  -1.9871073681768053e-01  1.1498010299355788e-02  -2.1029020950231664e-01  -1.6518934948130928e-01  1.4209949243094357e-02  2.0100658410474041e-02  5.2744005601679733e-01  2.6619067773889990e-03  -8.2456572953790563e-03  2.3184882024446857e-01  4.3407704056468094e-01  -3.1317640621383966e-02  4.9648224987545786e-01  -5.4236949945272040e-04  -6.2173131621052390e-02  1.0098630100819413e-02  -2.0470163846061634e-01  1.9972562785918042e-02  1.1138587739192551e-02  -1.8167562492567937e-01  -6.5843553196879859e-02  -1.0342800837257556e-02  -8.4397898451621942e-04  1.6360143733315811e-02  -3.2555503643869176e-03  -4.4915468759678279e-02  -7.4312727392383633e-03  -2.4794407554073767e-04  1.1888870133872865e-02  1.6801445975230096e-02  -3.4438720994131378e-01  1.4190138255631903e-03  -9.2787326929606173e-03  6.2582805435659680e-03  9.1069627142920904e-03  7.2222689542211504e-03  1.9314421358980005e-03  -7.0937004005401684e-03  3.8722421029460832e-03  8.7986862754430989e-03  -5.2740276300987108e-03  -2.0681209550424670e-01  -2.0075743298936463e-01  9.5850018971013015e-02  -8.5009125798605645e-02  -1.1657851281962628e-01  -2.0329375705885497e-01  -1.7813128018017890e-01  1.3615057342225232e+00  -3.3945439023239418e-02  1.5474244967460096e-01  -1.2958309046875338e-02  -1.2095408475613230e-02  3.3061248973037575e-03  1.3798490686640384e-02  2.2628618307419152e-02  -7.8947302260759782e-03  -6.7985904384423174e-04  6.4069730889027305e-03  -1.3409021678509516e-02  -3.2613299919002203e-01  -2.0243852340848165e-01  -1.2049312123517222e-03  -3.4108824422835610e-01  -2.6440414431844922e-01  1.7259275814931623e-02  -2.9697560295192360e-01  -3.5348948353863041e-01  3.0315335611265228e-02  -3.9116064766990961e-04  9.7731817571120733e-03  6.5831726839600162e-03  1.7252168038571040e-02  -4.8201171857657739e-03  -2.2444670396228825e-01  -1.1216598940996522e-02  -4.8950361849330623e-04  7.5195829239309438e-04  5.3186794845691372e-03  1.0201497964477075e-02  4.6200696570286841e-03  1.0947523904207439e-02  4.6713885669890957e-03  2.7731760796053738e-02  8.4148958910243831e-03  -1.4962125145255719e-02  1.4347432455837117e-02  -1.3416817345293283e-01  -4.9530617232495563e-02  -5.4954870279485424e-02  2.7955414384845514e-02  -4.1312428118881559e-03  1.0118014937124181e-03  -2.3203743087530392e-02  -1.9227734277511094e-01  -1.7133259834008688e-01  -1.4863206686863528e-01  3.8781002586128760e-01  1.0895285932841070e-01  -1.0299057184705870e-01  -1.9142245819962769e-01  -1.9239204617015773e-01  -1.0202966723133330e-01  -5.4136826570577522e-02  -1.1800034385699286e-01  -1.6018384831868471e-01  -1.6536326283984326e-01  1.2472731119196560e-02  1.6185716800795103e-02  1.1686498400653894e-02  1.6603949259912345e-02  1.3349398127353338e-02  1.6954953592633847e-02  -3.6556375369293972e-02  2.0996481399420666e-03  -1.5370888463279345e-01  1.3514722273471570e-02  1.7060065595003570e-02  1.4868139578636115e-02  1.2068075182735206e-02  1.5037462572684485e-03  1.5046913995923858e-02  -9.2171145115867187e-02  -6.3361128053595575e-02  -3.1930641122670789e-01  -3.3860044840876835e-01  -1.6082108315608215e-01  -1.2778769729866930e-02  1.7855738732714108e-02  1.0502948921031647e-02  2.1645469019467060e-02  3.9028423351680236e-01  -1.2681186619889179e-02  2.0726381678601889e-02  2.9013440663665888e-02  -1.0381709258049017e-01  8.1173227577055456e-03  2.8595705835107771e-01  3.2481959767281507e-02  2.9842996585404343e-02  -4.3954257465968805e-05  1.6314230043298794e-02  -3.2414501474335969e-03  -1.4096494505878127e-01  -5.0846526270793531e-04  -7.0006998880550286e-02  9.7189274417270339e-03  -7.2910955595571958e-03  1.1137613739084503e-02  -1.6540344216881858e-01  1.7469757086572713e-02  2.5911818278516366e-02  7.3515015673248152e-01  -1.9229297644066248e-01  -1.0961025466917074e-02  1.7066963054150844e-02  -2.7059297524186515e-01  -6.7933033880438809e-02  1.2573709993366617e-02  1.0642144504847116e-02  7.2544634732599278e-03  7.9888059805232148e-01  -1.3551057182196583e-02  5.2014290354040716e-03  4.1372249107999104e-03  4.1517504111014489e-03  3.6607793788609400e-01  7.1532079630675423e-04  3.2674091058741106e-01  -4.5617052738415050e-02  7.4220752783208293e-03  -3.5756355637000620e-01  -3.6525077535950451e-01  1.4044272524909723e-02  -3.5562174676349473e-01  -3.7469598476244877e-02  1.6669659212795084e-02  -5.2786806298611060e-03  1.4766469326116128e-02  1.0898608219809244e-02  -8.5643732816667768e-03  1.1224178587517106e-04  -1.1004404101084008e-02  -3.9748979907477409e-02  1.7359404928192691e-02  -1.9916099346635383e-01  1.8580217300053728e-02  1.4947644281381740e-02  1.6193948107427518e-02  -8.5211912172386758e-02  -1.2081113377849501e-01  -1.0097970250325936e-01  -7.7755896134783647e-02  3.4349029384325310e-03  1.2091954953862651e-02  -2.6106494976958955e-01  -1.7408414486293963e-01  -1.9970615391850469e-01  5.0517868766972555e-03  5.7978976972045149e-01  1.2778648327379511e-02  -7.2148526724449382e-03  -1.1027117096514825e-01  1.1092602658084741e-02  -2.3755206591624803e-01  1.5585459935004879e-02  -3.4964788371771904e-01  3.1444330230557937e-03  -1.5211077905522613e-01  -1.8107433990609914e-01  -2.1042910537885509e-01  1.7671495202705070e-02  1.6279262795294101e-02  1.7053937279144026e-02  1.4909879591908296e-02  -1.4329956908031329e-02  -1.0125998300250225e-01  1.1206707265712281e+00  9.4911922465834922e-03  -3.2206836839589706e-02  -3.2501397529763326e-01  -1.2737416127619049e-03  -9.2344258737088788e-03  1.4703821211411187e-03  5.4276281024539432e-03  1.5794298046049884e-02  1.7630160803127931e-02  -8.9729812186576351e-03  1.0850464747630935e-02  1.6772948044966408e-02  -4.5135551453349035e-02  -5.5324636758120681e-02  4.5359916408102668e-01  4.5185820463308168e-01  1.5762429015326675e-02  -2.7699448248304664e-01  3.9487725994103891e-03  -2.7417980005072810e-03  1.7551319205878494e-02  -6.4100279418772034e-03  -2.9584359630564108e-03  1.4599679713750422e-02  6.0060915320768304e-01  -4.6252793027732553e-02  1.6760312668879437e-02  6.8417654642496328e-02  2.4213462424667992e-01  -1.2407687714226917e-01  1.2105957892511019e-02  1.4565435755473682e-02  -2.4953824121510798e-01  -2.3330434630582653e-01  -3.5151283544201484e-01  2.0306057618168189e-02  1.5212388024315225e-02  -2.6567553816662337e-01  4.3626994779930445e-01  7.4866927894047897e-01  1.0895580651997135e-02  -1.5200765642079336e-01  1.0503414307585477e-02  -9.3274887492661267e-03  1.6685704166770721e-02  1.8034838879271077e-02  1.1418830897690517e-08  -2.1407355553060486e-01  -7.1464056999056679e-03  5.9879028962781349e-03  -2.1978980406167517e-01  -2.0616228736678643e-01  -3.8721132368030858e-03  -1.4432774801455941e-01  3.8741110997433048e-01  3.7229539245268173e-01  1.6720017789403296e-02  1.7233063941250727e-02  2.1629450729716067e-02  2.9451538223840119e-02  1.9930497923667544e-02  4.2889148430412796e-03  1.5776442801397884e-02  -1.8346588266904676e-01  2.4740303022309021e-02  2.8862035533751083e-02  -5.1668877012759247e-03  -1.0184280507484598e-02  -8.3377910098535582e-02  -2.2598316865244006e-01  1.5993115922928681e-03  -1.2978603196760319e-01  4.1109421040244114e-02  3.7910341065928048e-10  -7.0223727608635950e-03  3.2488110977227946e-03  -3.9804219488063491e-03  -1.5552256301622422e-01  1.4967152187389723e-02  -1.3718716689637526e-02  -6.6744902164400993e-03  -4.4401972048759572e-03  -1.8316279008255259e-02  -2.2497335674125752e-02  1.4376961331107991e-02  -2.5032322008030409e-02  -2.2485287113700046e-02  -3.2442472936647350e-02  7.0611663077579760e-03  -5.9475464762254295e-03  -3.6506622249184058e-02  3.9121107044982817e-01  -2.7529463581851991e-02  1.0585900148229334e-02  -6.0473951256745880e-02  -2.7953142120849392e-03  -2.6273318847683984e-03  -1.2600864754003880e-03  -2.0713147202716276e-01  1.1832955186472566e-02  1.7722324472053817e-02  -9.7733634262215322e-03  -2.2984059511369351e-01  1.5348224547791186e-02  1.4329851237721777e-02  1.3924898812015555e-02  -1.9276246090896176e-01  -2.0491577162830218e-01  1.7729694712725615e-02  -2.1843188639015393e-01  -2.5246488615530227e-01  -2.4684800930500381e-01  1.5240437169404928e-02  7.9708962847945038e-03  1.2966558789650137e-02  -4.2565655723146090e-01  -1.5862468082371083e-02  -1.3991421203647469e-01  1.8894313498795900e-02  3.1787443208288479e-01  -3.0073652487576388e-02  -6.7048461932637275e-03  -1.1721086327969853e-01  1.1418830897690517e-08  1.0753881930766498e+00  8.7608452696567496e-01  -2.3584961671424560e-02  -5.7355916426584150e-02  -1.3753322756130773e-01  9.8473662321918107e-03  1.6948244029054511e-03  -1.2809299259531140e-01  5.0046005582420044e-03  -1.8702139914301774e-01  5.2026178109362664e-01  4.6575910378697877e-01  4.7030199562693353e-01  8.3715233435831399e-03  -1.2270334080803648e-02  1.7467259797382576e-02  1.0913046933284230e-02  4.4652453374102209e-03  1.5485460812942550e-02  5.2590179373715440e-01  1.4027001451425953e-02  -3.7945925426026045e-01  1.2677822421208833e-02  8.7374152234415883e-03  1.2419503779076748e-02  7.8745485109444069e-03  9.7923084355209314e-03