<?xml version="1.0"?>
<VTKFile type="UnstructuredGrid"  version="0.1"  >
<UnstructuredGrid>
<Piece  NumberOfPoints="2426" NumberOfCells="4534">
<Points>
<DataArray  type="Float64"  NumberOfComponents="3"  format="ascii">0 0.41 0  0 0 0  2.2 0 0  2.2 0.41 0  0.2404508497187474 0.2293892626146237 0  0.25 0.2 0  0.2404508497187474 0.1706107373853764 0  0.2154508497187474 0.1524471741852423 0  0.1845491502812526 0.1524471741852423 0  0.1595491502812526 0.1706107373853764 0  0.15 0.2 0  0.1595491502812526 0.2293892626146237 0  0.1845491502812527 0.2475528258147577 0  0.2154508497187474 0.2475528258147577 0  0.5404508497187474 0.2293892626146237 0  0.55 0.2 0  0.5404508497187474 0.1706107373853764 0  0.5154508497187473 0.1524471741852423 0  0.4845491502812526 0.1524471741852423 0  0.4595491502812526 0.1706107373853764 0  0.45 0.2 0  0.4595491502812526 0.2293892626146237 0  0.4845491502812526 0.2475528258147577 0  0.5154508497187473 0.2475528258147577 0  1.1 0 0  0 0.205 0  1.1 0.41 0  0.55 0 0  0.55 0.41 0  0.275 0 0  0.275 0.41 0  1.65 0.41 0  1.65 0 0  1.375 0 0  1.375 0.41 0  1.925 0 0  1.925 0.41 0  0.8250000000000001 0.41 0  0.8250000000000001 0 0  1.5125 0.205 0  1.7875 0.205 0  0.9625000000000001 0.205 0  1.2375 0.205 0  2.2 0.205 0  0.7560964076246335 0.2151713709677419 0  1.99375 0.2152743902439024 0  2.0625 0 0  0.6875 0 0  2.0625 0.41 0  2.2 0.3075 0  0.6875 0.41 0  1.7875 0.41 0  1.375 0.1486128048780488 0  1.5125 0 0  1.7875 0 0  1.5125 0.41 0  0.9625000000000001 0 0  0.9625000000000001 0.41 0  0.4125 0 0  0.1375 0 0  0.1375 0.41 0  0.4125 0.41 0  1.2375 0 0  1.1 0.1486128048780487 0  1.2375 0.41 0  1.65 0.1486128048780487 0  1.126715909090909 0.2793064024390244 0  1.676715909090909 0.2793064024390244 0  1.348284090909091 0.2793064024390244 0  0.34375 0.3032389320646208 0  1.894702181800738 0.1282910975492754 0  2.092797818199262 0.1282910975492754 0  1.85625 0.3075 0  0.8630851210521902 0.286932093388664 0  0.89375 0.1025 0  0.35 0.1090282786671641 0  0 0.3075 0  0 0.1025 0  0.6526217841291382 0.288229645480046 0  0.7562500000000001 0.09660248895515888 0  0.6568633732316684 0.1557582854763441 0  2.099172119769978 0.25625 0  1.002356446954348 0.1010393851523063 0  1.99375 0.08395950269330846 0  1.459960956013612 0.3075 0  1.569025960719943 0.2986889805672169 0  1.03125 0.3278689922742084 0  0.75625 0.3247156761655783 0  1.959375 0.3126371951219512 0  1.749222215368287 0.1025 0  1.275777784631713 0.1025 0  2.2 0.1025 0  1.225938124459196 0.3075 0  1.550777784631713 0.1025 0  1.44375 0.07430640243902442 0  1.16875 0.07430640243902437 0  0.3528655045338512 0.2063263890916129 0  0.5890337614812103 0.08775733857679162 0  0.8504912436891263 0.190072835691683 0  1.899250267340833 0.2229966846119207 0  0.1020898364287272 0.3140258291809757 0  1.766482954545455 0.2934032012195123 0  1.051658316544432 0.2265720188842194 0  0.2 0.3400647632937836 0  1.421109702350723 0.2261157654379721 0  0.4812500000000001 0.41 0  0.4324401666997539 0.3216425986889796 0  0.098916018031319 0.09171660955420841 0  0.9508742791313441 0.2921736960864468 0  2.13125 0 0  2.118919042110979 0.3422084711244843 0  1.30625 0.41 0  0.20625 0 0  1.597888256393107 0.2173787389261347 0  0.4812500000000001 0 0  0.4324082967851086 0.08384041677422771 0  1.829299675393195 0.07400700849299596 0  0.568219932524165 0.3212274660843853 0  1.71875 0.41 0  0.268005226542646 0.08512186835670006 0  1.16875 0.41 0  2.038220665644273 0.332420740103091 0  0.6678017527842831 0.07701763866051195 0  0.89375 0.41 0  0.5111435174287687 0.07335351331957608 0  0.176193934632343 0.0734896648625108 0  0.07390688010811153 0.1697064032433452 0  0.05452951551825875 0.25625 0  0.61875 0.41 0  1.452769549894695 0.1548122580621249 0  1.369219062229598 0.07430640243902442 0  1.30625 0 0  1.720943423819132 0.1714577452753128 0  1.157188124459196 0.205 0  1.094219062229598 0.07430640243902437 0  1.304056576180868 0.1714577452753128 0  1.67579304192913 0.07430640243902437 0  0.2672907219039591 0.3037570723459566 0  1.209670467133757 0.1362100266964769 0  1.58125 0 0  1.03125 0 0  0.06875000000000001 0.41 0  0 0.35875 0  1.58125 0.41 0  1.631724228912893 0.3381867502687533 0  0.8240147050827157 0.1225233169495944 0  1.825608881788174 0.14499488549201 0  1.85625 0 0  1.44375 0 0  1.44375 0.41 0  1.85625 0.41 0  2.13125 0.41 0  0.7562500000000001 0.41 0  0.7562500000000001 0 0  0.89375 0 0  0.34375 0 0  0.34375 0.41 0  0.20625 0.41 0  0.06875000000000001 0 0  1.16875 0 0  1.03125 0.41 0  0.61875 0 0  1.71875 0 0  1.99375 0 0  1.99375 0.41 0  0.3972301426712326 0.2593842555611471 0  1.340625 0.3489494290853124 0  1.134375 0.3489494290853123 0  1.700180620188976 0.3438659752031281 0  0.5003922072260507 0.341765274319271 0  0.6212513815748759 0.2209216137134851 0  0.6885607720119526 0.215393731583638 0  1.033412357328477 0.1612902025713047 0  2.135782184673599 0.07126652247502523 0  1.668441847249787 0.2129203728327609 0  1.295782514339747 0.2378437748815763 0  1.409375 0.3520314716057996 0  2.129248544730567 0.1906135162504124 0  2.060771381434487 0.1989445750470348 0  2.013252586573865 0.1496169464686054 0  1.942766402200229 0.1734448904596831 0  1.895522487186454 0.06076163953489683 0  2.069553871656643 0.06605731020975725 0  0.9281250000000001 0.3539050257418612 0  1.274680914880868 0.3520219391081363 0  0.3030138498135347 0.2488370856812789 0  0.8223773249563684 0.341761430177996 0  0.9018164060227267 0.2326477848736739 0  0.8143027982392851 0.2440265179987191 0  0.7225087161029304 0.2699907246386231 0  1.614713220494657 0.09473434380863296 0  0.378125 0.3566194660323104 0  0.309375 0.3566194660323104 0  1.72990325744076 0.2380068107952482 0  0.6915936999299305 0.3429472631234433 0  0.6268087624932918 0.3466455500035671 0  1.356580098625191 0.2120393231351682 0  0.3060160055995138 0.1590148921620778 0  0.3954648733249218 0.156380553890791 0  2.034370752044885 0.2668681600792073 0  1.51768709249349 0.3426260931494756 0  1.561883724969884 0.1650446847858835 0  1.197344062229598 0.2523725417393646 0  0.9281250000000001 0.05124999999999999 0  1.804085235518364 0.3468178408964637 0  1.817887819205233 0.2589243285818559 0  0.9107805776841645 0.1653834539923287 0  1.905897727272727 0.3485060975609756 0  0 0.05125 0  0.844212276491354 0.0614201194265309 0  0.378125 0.05244637078450034 0  1.008571329007178 0.2705955969954818 0  0.7724048032149464 0.1559079561351474 0  0.7203054377831548 0.04941826955193545 0  1.192836486056382 0.3562350748565544 0  0.5967108020713719 0.1479294686523888 0  1.28257088594801 0.2944411014911587 0  0.7041890234548132 0.1222025174424443 0  1.474860187679412 0.2504218616229368 0  1.406767003493824 0.2829282258560709 0  0.3201325899091991 0.05890121548989159 0  0.5979220912872258 0.2727591995766724 0  1.845656689180403 0.1998310418452388 0  2.144958525570388 0.2909790873294231 0  2.2 0.15375 0  1.57794966442982 0.3540357145964566 0  0.9483181579620558 0.1214693369582054 0  0.0496154796471391 0.333125 0  1.508991196088596 0.1421783375065625 0  0.09776612425612034 0.2204896805326566 0  1.50436820029908 0.06143401634903343 0  1.223857000523521 0.0823554862453532 0  0.2531953886959507 0.3582003209055908 0  1.153316824384777 0.1289850171317837 0  2.148922302309752 0.1258841779285271 0  1.621993280276081 0.2841214267927899 0  1.550118654119087 0.2461998729100966 0  1.327182649291491 0.1216967252533594 0  1.753125 0.04556020050186112 0  1.271875 0.04556020050186116 0  0.9824282234771738 0.05051969257615314 0  1.039510847866381 0.05683351822678641 0  1.94956388244759 0.1180512551534177 0  1.949997712993411 0.04965831614304109 0  1.771961817615021 0.1530278789497521 0  1.909246823951428 0.2812757146784527 0  1.101974016627944 0.2038045618205013 0  0.7906250000000001 0.0444674049654372 0  1.948575539857022 0.2445328248721197 0  1.697271520964565 0.1233917627620729 0  1.065625 0.3689344961371042 0  1.085849084308977 0.3170853572226867 0  0.9840604787624379 0.3582077516409966 0  1.577403511714593 0.05463601888079143 0  0.05622663515370135 0.05493816910862376 0  0.8762396958822678 0.3392249777398821 0  1.751571320346033 0.3651102912045228 0  1.055327852410105 0.111864799513911 0  0.1583785085108421 0.2994699345738728 0  0.1455283439499995 0.3542795598723423 0  2.2 0.35875 0  0.225705107073232 0.05084786997482401 0  0.1455852234589313 0.1166494778469164 0  1.466879772203159 0.3611261772912453 0  1.990280163552011 0.3564754268533217 0  1.17471064520912 0.2990917256188288 0  0.7221925551074015 0.1739659241003985 0  0 0.25625 0  2.2 0.25625 0  2.2 0.05125 0  0 0.15375 0  1.853978576207987 0.35875 0  0.21965520498276 0.1015543880164422 0  1.515638456102889 0.2882700110184686 0  0.09048297387599738 0.3637717362208066 0  2.150453692751374 0.2387066338105111 0  1.323782677156475 0.04897634338873398 0  1.409375 0.03715320121951221 0  1.406484531114799 0.1087852750766809 0  1.134375 0.03715320121951218 0  1.627401732573545 0.04552157221025036 0  0.446875 0.3713289093361426 0  2.045405893604797 0.1105340662939892 0  1.255408269734577 0.1577307500159216 0  2.028125 0.03707597992059326 0  0.04420832937638274 0.128125 0  0.5817551710628505 0.3702615006034757 0  0.1197849154434487 0.2663398672460083 0  1.248258025468107 0.2565907092181813 0  0.1300647302703173 0.0508462728378621 0  0.7738123537510222 0.2761231499240648 0  1.203125 0.0366132337404304 0  0.5444207041612499 0.111205399508622 0  0.8016457771828226 0.1964238426015905 0  2.072662025974815 0.2975086504196739 0  0.4019040438866802 0.2103993403217561 0  0.4677372330974851 0.04827477407630658 0  0.8677218578847617 0.1432970430140788 0  1.058011122005847 0.2758866204059919 0  0.4429405887974043 0.2746184809910084 0  0.5843750000000001 0.03726989681835222 0  0.6318596133730142 0.1128692182767254 0  0.4862628454464408 0.2957029785303028 0  0.7805186758662764 0.3673578380827891 0  1.887722846421017 0.1760882698830035 0  0.3498893058880703 0.256189258793856 0  1.472640588990488 0.1118278026240017 0  1.865937103925594 0.2604137786483804 0
[...]
<PointData  Scalars="f_43"> 
<DataArray  type="Float64"  Name="f_43"  format="ascii">4.4296063730560070e-01  4.7353957818373699e-01  9.2669963241073882e-10  1.0595186889761388e-09  -3.4136329559610740e-01  -3.0516556495851560e-01  -3.2799029632961657e-01  -4.9545462378774002e-01  -9.1274879861447100e-01  8.8306021299646897e-01  2.0168915764744031e+00  4.2046157234640791e-01  -1.1380969085024006e+00  -4.8842137533905566e-01  -2.5894632800287104e-01  -2.3480706241319027e-01  -2.7025714495084013e-01  -4.3919097194565793e-01  -1.0984974020424343e-01  -8.8278333155877853e-02  -2.7236221047276715e-01  -1.2044857964894767e-01  -5.2915670632591963e-02  -5.0012241061898577e-01  5.7159934789890732e-03  7.8510666515149097e-01  8.2868346105173882e-03  -1.8212793096299140e-01  -1.7775698037326182e-01  2.0628841181803605e-02  4.1219598331439393e-02  2.9853648685898064e-02  3.2114280893637950e-02  3.4949741892752809e-02  2.6790540086144437e-02  1.8117848752070672e-02  2.1252035646922924e-02  -6.9705326806770357e-02  -6.7464705930041752e-02  3.4239101553012866e-02  2.4309989313825473e-02  3.3159618916982860e-02  2.9091379924473401e-02  1.3376061405645967e-09  -4.1681113642974575e-02  1.5723514232805640e-02  9.7666640669383104e-03  -1.3105134623444017e-01  1.0304699148036263e-02  8.5064013132865331e-10  -1.2945151712019889e-01  2.4275586229035383e-02  3.5191879532944621e-02  3.1076835319657773e-02  2.6634846841898215e-02  3.7070327672660663e-02  -1.7588734223497070e-02  -2.7289875650200503e-02  -1.7309249615198746e-01  3.9028632289612364e-01  3.6772644364017892e-01  -1.5627066271506301e-01  2.6382178146005991e-02  2.0838121389041488e-02  2.1279364736996507e-02  3.1504791869416335e-02  2.4389410802631344e-02  2.7470960826452482e-02  2.6275474888202525e-02  -2.3521786650730436e-01  1.9546633901936873e-02  8.0103920634385321e-03  2.3570364704349093e-02  -1.6127116166039741e-02  -1.1801928794741423e-02  -2.7547246671425518e-01  5.3955471776796127e-01  5.7347125287882506e-01  -1.6951223316717792e-01  -8.0843012585390089e-02  -1.8337418593046026e-01  6.0383685002258700e-03  4.9089791763093230e-03  1.3761434714109443e-02  3.4844107415783233e-02  3.6310320428461926e-02  -2.7252007285404520e-03  -8.5914542955388168e-02  1.9433166235789875e-02  2.9076649064898898e-02  3.2225805142206077e-02  -1.0543274128782021e-09  2.3509318716310793e-02  3.0110954142202134e-02  3.2346187694649864e-02  1.5396680083021218e-02  -3.3409205586250440e-01  -1.9991031992521910e-01  2.4290321148496167e-02  2.1928583197614097e-02  4.8301067809549819e-01  2.3312831166224242e-02  3.2733086708380342e-02  1.7140497438586372e-01  3.3679182533485230e-02  -1.7881601676684367e-01  -1.9428476851572341e-01  5.1206957335614367e-01  -2.9245049560693605e-03  5.0562706484257912e-03  5.2025598979795768e-03  2.2461434933478849e-02  2.1804418584506330e-01  3.3317445606318323e-02  -1.8754859964782217e-01  -1.9300491683917639e-01  2.4113965511792342e-02  -2.0314954309492761e-01  2.5589336471964038e-02  -1.2872578928607062e-01  1.8308170893072944e-02  1.2545289160493094e-02  -1.4328553261078528e-01  -4.6923431677127946e-02  -2.0218804137415966e-01  2.3468873237243701e-01  9.1760787585199777e-01  7.4011088751799081e-01  -1.5868384527304813e-01  3.2067195943857096e-02  3.5754069837824753e-02  3.3562048631735467e-02  2.9742472380694641e-02  2.9339317086392362e-02  6.5759976669907544e-03  3.4395811612981962e-02  3.1980322686661386e-02  -1.6689593879203152e-01  2.7715798346300578e-02  3.1685241826514811e-02  -3.5189235311198579e-03  4.3079550901147934e-01  4.5513382096531169e-01  3.5099326323077107e-02  3.1338791573251583e-02  -2.0719897129058480e-02  2.4674253282835922e-02  2.2407370367304454e-02  3.2687649863699694e-02  3.3383635922080400e-02  2.3801538859680154e-02  4.6626962501669870e-03  -9.8009177018404323e-02  -9.8328232862897907e-02  -3.9578047519796017e-02  -1.1719171769946150e-01  -8.7232028278126067e-02  2.1760072432601704e-01  4.5922018976296530e-01  1.5600013632541434e-02  -8.2892620852665320e-03  -1.5944275516533638e-01  3.0283444507671654e-02  1.3994885177143562e-02  1.6343603990349866e-02  -3.1762607039920548e-01  2.2938922512988385e-02  1.6027161847608596e-02  2.5547242168596763e-02  -1.9232088732564909e-01  -2.2240253511902763e-01  -1.3404615482743512e-01  2.5197937011715264e-02  4.7547900928638538e-03  2.8890834629863388e-02  2.5297981616533679e-02  2.9470536393934887e-02  4.6546177685137446e-03  9.8894058615319955e-03  1.2617233466445428e-02  1.6447779131443858e-02  1.9776382294204892e-02  9.3624718601471816e-03  -3.4418906108374968e-02  2.1353913433322148e-02  -3.3324863846838720e-01  -6.1725388432135389e-02  2.4153752537478902e-02  -3.1797068959963136e-03  -9.2781119092717745e-02  3.1483468705071370e-02  -1.4707699205150052e-01  -6.4174084690988301e-02  2.4092484723011301e-02  -1.2537500136368662e-01  -1.6002478576520959e-01  2.9924364172334066e-02  -3.2978781437364973e-01  -3.5031493838535960e-01  1.2836407212361636e-02  3.7972798669435752e-02  3.0389460676378943e-02  2.6893481224414695e-02  -2.4823133902745553e-02  2.3695398752611421e-02  2.3725166240323940e-02  3.3270655582515220e-02  2.2630629952929967e-02  4.8646766705637257e-01  -5.2979881150275708e-02  -1.6885561350171688e-01  1.7655743051400885e-02  -3.5489108526361342e-02  -1.1152565630073330e-01  2.0883986162651524e-02  -2.3361831156059276e-01  2.3244374125991490e-02  -1.1901941479543493e-01  3.6815244751508477e-02  3.0893158279015343e-02  -1.1207768349028950e-01  -2.2963381160226326e-01  2.3182397081080650e-02  2.9544402902811164e-03  -1.5197637400490335e-09  3.5841831254749830e-02  1.0586200464546787e-02  4.7854886851510081e-01  3.0290127783191758e-02  1.1372082691246843e+00  3.0207565758600535e-02  2.4726195399248422e-02  5.1208449401134379e-02  2.1088758757078399e-02  4.0413746642906853e-03  3.2165084208321280e-02  3.6845276422262083e-02  3.5223306211681391e-02  2.8632560003032510e-02  3.0904717336800589e-02  -1.0587930424877294e-02  -7.1551613407715782e-04  1.6022977913654136e-02  1.6445263239531008e-02  2.8258120797725939e-02  2.2124008474917221e-02  2.9805621714191231e-02  -7.9420502087376235e-02  2.0173908111178234e-02  3.1020258791282264e-02  8.7029934699473887e-04  1.1323111823080385e-02  -1.9976233811878519e-02  3.1160424855068227e-02  4.7964088463850912e-01  -4.3977043269604318e-02  2.4051437605072515e-02  1.1486278512311090e-02  2.5068112139275023e-01  3.4210497034120518e-01  -5.4673458352826012e-09  1.1979302996549042e-01  3.5809505703814409e-01  3.5339999974007649e-02  1.6736711049744786e-02  2.3751322465837128e-02  -9.1600212321792898e-02  6.9080161193317291e-01  8.5064013132865331e-10  6.6518323922450611e-10  7.1705855835546028e-01  2.3901147754911235e-02  -1.1924144094404761e-01  3.7426216045136858e-02  4.2215109583399979e-01  1.7154213493336277e-03  3.5045283121515398e-02  3.3983826155090963e-02  3.4296315855865470e-02  9.8230704075840114e-03  3.2136301822533103e-02  -1.7209968801389453e-01  1.0833469425059689e-02  3.2610317234543308e-02  1.1905690037866488e-02  6.6029225762788168e-01  -1.7096060194552509e-01  6.8646015376311276e-01  2.4756607730337207e-02  3.9583695694699045e-01  -4.8649565363530510e-02  2.0680609137619963e-02  -2.5731622005225485e-01  -9.6454726276726222e-04  9.3481069991100795e-03  -3.1219979195629727e-01  -1.8533665628126716e-01  1.4892992723103824e-02  2.0440910909391409e-02  -1.9418287526325523e-01  -1.7270083926864793e-01  -1.8853913129604158e-01  -2.0329840299073954e-01  -8.4378195982778584e-02  2.0231586885353970e-02  -3.3791492048442612e-01  3.1319147959003889e-02  2.3352106696615488e-02  2.3817885376037112e-02  3.4418438848228573e-02  -1.1014690135054769e-01  2.5967758365725204e-02  -1.1350833567069284e-01  -1.5522572890401098e-01  -1.0547869851637437e-01  3.2139976643367194e-02  -2.0476016463986813e-01  -1.7819758668455682e-01  2.4624124120705217e-02  -2.7015976177554613e-01  -2.1898171306594558e-01  2.3409880499939608e-02  6.8858469229293416e-03  3.3863972561673922e-02  -3.3753698497284899e-02  1.3364556231928382e-02  -3.2569270982434617e-01  -3.3711826670210104e-01  3.1197521314393181e-02  -3.4014174629136529e-01  9.2505181127293890e-01  2.3254444295714938e-02  8.6023311236598443e-01  1.7024425698736082e-02  1.3438198480251639e-02  -1.8752740763235447e-02  1.9946231198016912e-03  7.3566297694976895e-03  9.0701218766842326e-03  -6.0038268482105160e-03  2.3084363231170777e-02  3.2617408676477083e-02  -1.3922611206796479e-01  -2.6894217379769719e-01  2.6683728708082853e-02  -5.7753409364052898e-02  1.5619419654888677e-02  3.0672370826929283e-02  2.8454584449620395e-02  3.1630979024690691e-02  3.0987060953498520e-02  -1.8115872583891648e-01  -1.7812070910354272e-01  3.6719581029139664e-02  3.1529416316496785e-02  3.0830885919280536e-02  3.0232737006993791e-03  2.5307332204698814e-03  4.4046758699191513e-01  -2.8199639323050546e-01  -1.7622680888480898e-02  3.0893938781082125e-02  2.6033746687545115e-02  2.1660498703491834e-02  -6.0687947441686242e-02  3.1174505512332910e-02  2.0048117852108673e-02  -3.6982138353473144e-02  3.0722217611495375e-02  2.4134751350474881e-02  2.3730910606280489e-02  3.1409613469894582e-01  2.8537541355997762e-02  -1.8748140499728452e-01  -1.8534089106992788e-01  2.5829337339766507e-03  3.0269681717348257e-01  1.0367019814973085e-02  -1.0063935063113949e-02  3.3489866625340793e-02  -2.2890890315184728e-01  2.1369018186831540e-02  8.0114532537223018e-03  3.1479373501924326e-02  3.4566805519919676e-02  -2.4769064062896012e-01  -1.4361756497060940e-01  2.5553718004871030e-02  1.2648511367434005e-02  2.9528886144759407e-02  2.4918704208434582e-02  3.2343455360327206e-02  3.3362359884394643e-03  4.3522444696192558e-01  2.2661518909774480e-02  -1.3075934730607719e-01  -1.8977065036406737e-01  -1.0704370907230303e-01  1.4189600860067465e-02  -3.1872779108066662e-01  2.2896304615696028e-02  -5.3095379131755549e-02  2.2275889909829559e-02  2.0245375875768804e-02  1.7496467805768180e-02  -9.7485233149427458e-03  3.0193174148349433e-02  3.0784844529104842e-02  3.2002730367723539e-02  3.1830531435303580e-02  4.7086288464784692e-01  4.4331405333853235e-01  1.2582629275549437e-02  3.3762169713526365e-02  -5.8730825328533617e-02  -5.4645932116026454e-02  6.3243046570477992e-03  9.0386262443261488e-03  5.7539914619261956e-01  -2.1974359123129700e-01  7.1192745254842926e-01  -1.5725454149526491e-01  2.7338186275558798e-02  -7.7070020916146217e-02  -2.0800721317954334e-02  -2.3882206854525614e-01  3.1385701671071096e-02  7.8125619858292761e-01  -1.6672981466606462e-01  1.1634006760040951e-02  3.4643109969856319e-02  2.7292897369491725e-01  3.7595378230958196e-02  6.1587911976612897e-01  3.0677683643718302e-02  -1.0871244837056410e-01  2.5745996186259570e-02  2.9529574638981419e-02  2.9888925917534899e-02  3.4137658359230723e-02  3.5331950851252625e-02  3.5350793358004534e-02  1.3138757192418285e-02  3.1149214466392895e-02  3.5561785454383217e-02  -1.7768983870148583e-01  1.4527851267259469e-02  -1.9495156567745711e-01  -1.4656468481267648e-01  2.1581116428940030e-02  3.0013288722104091e-02  5.4777329205333447e-01  3.4298912452626396e-02  2.8010866360924938e-02  2.5219582334982671e-01  4.5441346017707734e-01  -1.7701722402726206e-02  5.1681818855054351e-01  3.1688663491353318e-02  -4.6696642131960932e-02  3.1006490961775577e-02  -1.8698533645366339e-01  3.7284400483343909e-02  2.4559071093881672e-02  -1.5860801914566289e-01  -4.5202207398700400e-02  9.6688441402572791e-03  1.3573549829061227e-02  3.4931863990872336e-02  5.9462545073811083e-03  -2.7274805060341759e-02  4.2677229058872236e-03  1.6056115276169216e-03  2.3240765097480881e-02  3.0254913643112735e-02  -3.2475794934676394e-01  3.4275741543697093e-02  9.3167851229408929e-03  2.6892209081605580e-03  5.9696701320879481e-03  1.7675878386597819e-02  6.2677110323782472e-03  2.9152347352693786e-02  2.2225368831560368e-02  2.6164249978907980e-02  1.4590232182500646e-02  -1.8479136570004928e-01  -1.7901502609159975e-01  1.1620254322389416e-01  -6.3836407385464145e-02  -9.6480939065203219e-02  -1.8134368056605193e-01  -1.5728144627026328e-01  1.3817211216841272e+00  -6.1086548476354955e-03  1.7469412147900876e-01  1.8019328151675274e-02  1.4233705218411092e-02  2.1965556099378010e-02  2.4212048092915689e-02  2.6040013007297434e-02  2.0330546433208932e-02  3.3667720637781902e-02  6.2681123558749339e-03  2.0324731006211582e-02  -3.0798079754251323e-01  -1.8375906471698530e-01  2.2690017219357494e-02  -3.2051023441823451e-01  -2.4753617899453323e-01  2.6290415362168501e-02  -2.7221042291978359e-01  -3.3314276271717408e-01  2.9679090600112135e-02  2.7395965249121058e-02  1.3722752582676219e-02  1.1844305275837578e-02  1.9288779780175767e-02  2.1780715523041727e-02  -2.0703424578155047e-01  1.1685689879009108e-02  2.1861798502023595e-02  3.2058482426644046e-02  1.5055545036561119e-02  3.4936404569045662e-02  2.5811898370893278e-03  7.4609460699139284e-03  3.3954840398461451e-02  3.5923365446844366e-02  2.4596199910964772e-02  5.8906291627211916e-04  2.8593687313858779e-02  -1.1430773116829319e-01  -2.7656397665385572e-02  -3.6804206695077779e-02  3.0169494448273680e-02  1.0381892240744591e-02  2.2684024667848496e-03  1.3072977749030712e-03  -1.7101304474971951e-01  -1.5162899052971684e-01  -1.2813987728739495e-01  4.0778448242460535e-01  1.2890836042948212e-01  -8.3190372702909604e-02  -1.7390164977649902e-01  -1.7062862134196236e-01  -8.2621127644935760e-02  -3.4073316608315821e-02  -9.7797985819591246e-02  -1.4010176625716014e-01  -1.4491589578756897e-01  2.1114858080796793e-02  3.2094128911533744e-02  1.6031561266551340e-02  3.0703499276506230e-02  1.1928503324870455e-02  1.9011099734313194e-02  -9.6951853475150188e-03  2.5226554836698906e-02  -1.3520354293465667e-01  1.2725988147387832e-02  2.7770027604877533e-02  3.4018209732913883e-02  3.1500439056259877e-02  3.2734123575411084e-02  2.5794171696657184e-02  -7.1818511508507946e-02  -4.1526577273870907e-02  -2.9885987472146430e-01  -3.2025178061067067e-01  -1.3592548386569378e-01  1.5504693718029417e-02  2.6701162375191347e-02  2.4880456218048345e-02  2.9673220072200905e-02  4.1064683132047131e-01  2.0855515078868393e-02  3.7834082180427345e-02  3.7230920482517867e-02  -8.4595022293434158e-02  1.9101292150263779e-02  3.0572723180918593e-01  3.3009288901123833e-02  3.1510941844730501e-02  2.5508672859566230e-02  2.3078770628313997e-02  1.9845417015416592e-02  -1.2156869674178848e-01  2.6859102354354847e-02  -5.0155829224501437e-02  2.4336289494068273e-02  2.7862963991856476e-02  2.9192338772303501e-02  -1.4570245530518303e-01  2.1642515196728881e-02  3.6682132176012718e-02  7.5523776412516519e-01  -1.7328599755316423e-01  6.9621980721390388e-03  3.1764820483545758e-02  -2.4730287862809294e-01  -4.9647209554459504e-02  9.8221235946102381e-03  8.2234463315142663e-03  3.4660291447106945e-02  8.1887809137927936e-01  2.2014375716719128e-02  2.9847858346956361e-02  1.9171603687990851e-02  1.7897218724468214e-02  3.8605172002389088e-01  8.0031580726338224e-03  3.4707214857910207e-01  -2.9189930131490960e-02  1.2459480760836248e-02  -3.3683222058583762e-01  -3.4517458925426459e-01  2.4000865363707692e-02  -3.3683213380818922e-01  -1.5851944636726730e-02  2.3767730261844561e-02  2.5883103694539535e-02  2.3327726349332351e-02  1.5596940717160581e-02  1.4410531830024246e-02  1.3798118275414617e-03  1.3387764446974308e-02  -1.3441298685458429e-02  3.0516829341964157e-02  -1.7795688856638045e-01  3.0783079393670480e-02  3.2161770257483631e-02  2.2218989839357169e-02  -6.6548889660238128e-02  -1.0392329763567590e-01  -7.9576439434509552e-02  -5.3916564300237640e-02  3.2799694645936343e-02  3.6172690874141461e-02  -2.4411276350342243e-01  -1.5303071181062478e-01  -1.7832244862411339e-01  3.4229481289340696e-02  6.0015965615605782e-01  3.0920581361246577e-02  1.2758278839374174e-02  -9.0111342219222110e-02  3.5823810622744277e-02  -2.1784758087752551e-01  2.3428828777805791e-02  -3.2740468349264590e-01  1.7803612819537823e-02  -1.3221086954274353e-01  -1.6157671832610129e-01  -1.9138281087687209e-01  2.0716918797008679e-02  3.0346372698138582e-02  3.1197700538036371e-02  2.3414455057625905e-02  2.2834788528160323e-02  -8.1697281584792003e-02  1.1405901638033318e+00  2.3882380437500825e-02  -7.0559421953614249e-03  -3.0111883964392611e-01  2.6429873633894069e-02  2.4728188091676435e-02  3.0671268288396388e-02  3.1018762681981435e-02  2.3469552104888214e-02  2.3552110939502637e-02  7.1093417831801084e-03  3.0963793957580012e-02  1.7921920030065815e-02  -2.2017500510541542e-02  -3.5714349866325552e-02  4.7394080565049718e-01  4.7219969352869812e-01  3.0343325507611197e-02  -2.5787459361266957e-01  1.9476979471537557e-02  7.8136880793207176e-03  2.8920414514181713e-02  4.9776497106745450e-03  2.1715058363499243e-02  3.1370277909364863e-02  6.2056950988816306e-01  -2.8864749596660969e-02  3.7565373935096499e-02  8.8283908004808995e-02  2.6207062074013371e-01  -1.0433657876126053e-01  1.4393020330771434e-02  2.3924545338074338e-02  -2.3140300641285386e-01  -2.1090051830348111e-01  -3.3031132996845708e-01  2.9417957835374837e-02  2.3944803834583708e-02  -2.4814130593660391e-01  4.5660458337637494e-01  7.6874231514793478e-01  7.2983635239004781e-03  -1.2903920366685653e-01  2.4198015433639797e-02  2.6710625012586562e-02  3.1593268721469836e-02  2.3114232796870859e-02  1.3376061405645967e-09  -1.9078357722540434e-01  2.9664307587672942e-02  2.6633923577527455e-03  -1.9755580901637740e-01  -1.8956448788454597e-01  9.7859871757502680e-03  -1.2430745262631361e-01  4.0737272458157275e-01  3.9223374710375392e-01  2.2663953365716395e-02  3.1717594441855616e-02  3.5519588809905037e-02  3.6153961699081291e-02  3.6758742263605509e-02  3.2718433000448514e-02  2.3747667295512250e-02  -1.6338267192199057e-01  2.8781516923556818e-02  3.3594095003684342e-02  8.3609709193463236e-03  2.6955868046909465e-03  -6.4839027172948913e-02  -2.0527070928298441e-01  2.1924973751765119e-02  -1.0927750246497471e-01  6.1457348023998513e-02  -1.0543274128782021e-09  2.3895913864086862e-02  2.4329937511720526e-02  2.1603846221165596e-02  -1.3446326416883347e-01  2.9995760054059052e-02  6.1702460775419146e-03  1.5093170289495722e-02  2.3403934060691387e-02  1.0509732387786500e-02  1.2595671779507939e-03  1.5154397932144506e-02  3.9790596721571703e-03  4.5537429552561411e-03  -3.5052487905972026e-03  3.0820144997471079e-02  3.0818961189538641e-02  -1.9532419997496980e-02  4.1153694301051341e-01  -9.8971475329801537e-04  2.4181035193294339e-02  -4.2984913407977075e-02  3.5977367823450675e-03  3.6218708846380066e-03  1.3567351061678598e-03  -1.8946409805354456e-01  2.3071959996567703e-02  1.7219512082119155e-02  2.9947210067903515e-02  -2.1008300563393015e-01  3.3265096998036627e-02  2.9465461445429234e-02  2.7392595440960382e-02  -1.7489559544447822e-01  -1.8732068369222743e-01  3.0975580811751176e-02  -2.0115380910630132e-01  -2.3278814399894207e-01  -2.2563845756500886e-01  2.3981940501771236e-02  1.7798061214997982e-02  3.2677550709893713e-02  -4.0503420910110000e-01  2.2061409907014971e-02  -1.2018652469022673e-01  3.2893413694804675e-02  3.3784743273799644e-01  -1.7863806833611454e-02  9.2089933580443706e-03  -9.7210767688041599e-02  1.3376061405645967e-09  1.0955623744274368e+00  8.9615325764350429e-01  -1.2027350362628126e-02  -3.8378567384595122e-02  -1.1925975474582896e-01  3.6252674857129699e-02  3.3585040750694579e-02  -1.0899885789337788e-01  1.8003409764544849e-02  -1.6737240373339901e-01  5.4023631038979369e-01  4.8572466539211290e-01  4.9026426395933820e-01  1.6347092080427141e-02  6.8214454508889700e-03  3.6798126633569996e-02  3.6029757639945301e-02  3.5372917696801523e-02  2.3435791105423178e-02  5.4643361841795701e-01  2.0102929638990494e-02  -3.5974491123022656e-01  3.1094066344711593e-02  2.4135575070149285e-02  2.3737787867173003e-02  1.8039086971813986e-02  1.7413912728234754e-02  -1.7801448845476936e-01  2.4296013747694137e-02  -1.8748128433918512e-01  2.8624452277189905e-02  1.975619021191