<?xml version="1.0"?>
<VTKFile type="UnstructuredGrid"  version="0.1"  >
<UnstructuredGrid>
<Piece  NumberOfPoints="2426" NumberOfCells="4534">
<Points>
<DataArray  type="Float64"  NumberOfComponents="3"  format="ascii">0 0.41 0  0 0 0  2.2 0 0  2.2 0.41 0  0.2404508497187474 0.2293892626146237 0  0.25 0.2 0  0.2404508497187474 0.1706107373853764 0  0.2154508497187474 0.1524471741852423 0  0.1845491502812526 0.1524471741852423 0  0.1595491502812526 0.1706107373853764 0  0.15 0.2 0  0.1595491502812526 0.2293892626146237 0  0.1845491502812527 0.2475528258147577 0  0.2154508497187474 0.2475528258147577 0  0.5404508497187474 0.2293892626146237 0  0.55 0.2 0  0.5404508497187474 0.1706107373853764 0  0.5154508497187473 0.1524471741852423 0  0.4845491502812526 0.1524471741852423 0  0.4595491502812526 0.1706107373853764 0  0.45 0.2 0  0.4595491502812526 0.2293892626146237 0  0.4845491502812526 0.2475528258147577 0  0.5154508497187473 0.2475528258147577 0  1.1 0 0  0 0.205 0  1.1 0.41 0  0.55 0 0  0.55 0.41 0  0.275 0 0  0.275 0.41 0  1.65 0.41 0  1.65 0 0  1.375 0 0  1.375 0.41 0  1.925 0 0  1.925 0.41 0  0.8250000000000001 0.41 0  0.8250000000000001 0 0  1.5125 0.205 0  1.7875 0.205 0  0.9625000000000001 0.205 0  1.2375 0.205 0  2.2 0.205 0  0.7560964076246335 0.2151713709677419 0  1.99375 0.2152743902439024 0  2.0625 0 0  0.6875 0 0  2.0625 0.41 0  2.2 0.3075 0  0.6875 0.41 0  1.7875 0.41 0  1.375 0.1486128048780488 0  1.5125 0 0  1.7875 0 0  1.5125 0.41 0  0.9625000000000001 0 0  0.9625000000000001 0.41 0  0.4125 0 0  0.1375 0 0  0.1375 0.41 0  0.4125 0.41 0  1.2375 0 0  1.1 0.1486128048780487 0  1.2375 0.41 0  1.65 0.1486128048780487 0  1.126715909090909 0.2793064024390244 0  1.676715909090909 0.2793064024390244 0  1.348284090909091 0.2793064024390244 0  0.34375 0.3032389320646208 0  1.894702181800738 0.1282910975492754 0  2.092797818199262 0.1282910975492754 0  1.85625 0.3075 0  0.8630851210521902 0.286932093388664 0  0.89375 0.1025 0  0.35 0.1090282786671641 0  0 0.3075 0  0 0.1025 0  0.6526217841291382 0.288229645480046 0  0.7562500000000001 0.09660248895515888 0  0.6568633732316684 0.1557582854763441 0  2.099172119769978 0.25625 0  1.002356446954348 0.1010393851523063 0  1.99375 0.08395950269330846 0  1.459960956013612 0.3075 0  1.569025960719943 0.2986889805672169 0  1.03125 0.3278689922742084 0  0.75625 0.3247156761655783 0  1.959375 0.3126371951219512 0  1.749222215368287 0.1025 0  1.275777784631713 0.1025 0  2.2 0.1025 0  1.225938124459196 0.3075 0  1.550777784631713 0.1025 0  1.44375 0.07430640243902442 0  1.16875 0.07430640243902437 0  0.3528655045338512 0.2063263890916129 0  0.5890337614812103 0.08775733857679162 0  0.8504912436891263 0.190072835691683 0  1.899250267340833 0.2229966846119207 0  0.1020898364287272 0.3140258291809757 0  1.766482954545455 0.2934032012195123 0  1.051658316544432 0.2265720188842194 0  0.2 0.3400647632937836 0  1.421109702350723 0.2261157654379721 0  0.4812500000000001 0.41 0  0.4324401666997539 0.3216425986889796 0  0.098916018031319 0.09171660955420841 0  0.9508742791313441 0.2921736960864468 0  2.13125 0 0  2.118919042110979 0.3422084711244843 0  1.30625 0.41 0  0.20625 0 0  1.597888256393107 0.2173787389261347 0  0.4812500000000001 0 0  0.4324082967851086 0.08384041677422771 0  1.829299675393195 0.07400700849299596 0  0.568219932524165 0.3212274660843853 0  1.71875 0.41 0  0.268005226542646 0.08512186835670006 0  1.16875 0.41 0  2.038220665644273 0.332420740103091 0  0.6678017527842831 0.07701763866051195 0  0.89375 0.41 0  0.5111435174287687 0.07335351331957608 0  0.176193934632343 0.0734896648625108 0  0.07390688010811153 0.1697064032433452 0  0.05452951551825875 0.25625 0  0.61875 0.41 0  1.452769549894695 0.1548122580621249 0  1.369219062229598 0.07430640243902442 0  1.30625 0 0  1.720943423819132 0.1714577452753128 0  1.157188124459196 0.205 0  1.094219062229598 0.07430640243902437 0  1.304056576180868 0.1714577452753128 0  1.67579304192913 0.07430640243902437 0  0.2672907219039591 0.3037570723459566 0  1.209670467133757 0.1362100266964769 0  1.58125 0 0  1.03125 0 0  0.06875000000000001 0.41 0  0 0.35875 0  1.58125 0.41 0  1.631724228912893 0.3381867502687533 0  0.8240147050827157 0.1225233169495944 0  1.825608881788174 0.14499488549201 0  1.85625 0 0  1.44375 0 0  1.44375 0.41 0  1.85625 0.41 0  2.13125 0.41 0  0.7562500000000001 0.41 0  0.7562500000000001 0 0  0.89375 0 0  0.34375 0 0  0.34375 0.41 0  0.20625 0.41 0  0.06875000000000001 0 0  1.16875 0 0  1.03125 0.41 0  0.61875 0 0  1.71875 0 0  1.99375 0 0  1.99375 0.41 0  0.3972301426712326 0.2593842555611471 0  1.340625 0.3489494290853124 0  1.134375 0.3489494290853123 0  1.700180620188976 0.3438659752031281 0  0.5003922072260507 0.341765274319271 0  0.6212513815748759 0.2209216137134851 0  0.6885607720119526 0.215393731583638 0  1.033412357328477 0.1612902025713047 0  2.135782184673599 0.07126652247502523 0  1.668441847249787 0.2129203728327609 0  1.295782514339747 0.2378437748815763 0  1.409375 0.3520314716057996 0  2.129248544730567 0.1906135162504124 0  2.060771381434487 0.1989445750470348 0  2.013252586573865 0.1496169464686054 0  1.942766402200229 0.1734448904596831 0  1.895522487186454 0.06076163953489683 0  2.069553871656643 0.06605731020975725 0  0.9281250000000001 0.3539050257418612 0  1.274680914880868 0.3520219391081363 0  0.3030138498135347 0.2488370856812789 0  0.8223773249563684 0.341761430177996 0  0.9018164060227267 0.2326477848736739 0  0.8143027982392851 0.2440265179987191 0  0.7225087161029304 0.2699907246386231 0  1.614713220494657 0.09473434380863296 0  0.378125 0.3566194660323104 0  0.309375 0.3566194660323104 0  1.72990325744076 0.2380068107952482 0  0.6915936999299305 0.3429472631234433 0  0.6268087624932918 0.3466455500035671 0  1.356580098625191 0.2120393231351682 0  0.3060160055995138 0.1590148921620778 0  0.3954648733249218 0.156380553890791 0  2.034370752044885 0.2668681600792073 0  1.51768709249349 0.3426260931494756 0  1.561883724969884 0.1650446847858835 0  1.197344062229598 0.2523725417393646 0  0.9281250000000001 0.05124999999999999 0  1.804085235518364 0.3468178408964637 0  1.817887819205233 0.2589243285818559 0  0.9107805776841645 0.1653834539923287 0  1.905897727272727 0.3485060975609756 0  0 0.05125 0  0.844212276491354 0.0614201194265309 0  0.378125 0.05244637078450034 0  1.008571329007178 0.2705955969954818 0  0.7724048032149464 0.1559079561351474 0  0.7203054377831548 0.04941826955193545 0  1.192836486056382 0.3562350748565544 0  0.5967108020713719 0.1479294686523888 0  1.28257088594801 0.2944411014911587 0  0.7041890234548132 0.1222025174424443 0  1.474860187679412 0.2504218616229368 0  1.406767003493824 0.2829282258560709 0  0.3201325899091991 0.05890121548989159 0  0.5979220912872258 0.2727591995766724 0  1.845656689180403 0.1998310418452388 0  2.144958525570388 0.2909790873294231 0  2.2 0.15375 0  1.57794966442982 0.3540357145964566 0  0.9483181579620558 0.1214693369582054 0  0.0496154796471391 0.333125 0  1.508991196088596 0.1421783375065625 0  0.09776612425612034 0.2204896805326566 0  1.50436820029908 0.06143401634903343 0  1.223857000523521 0.0823554862453532 0  0.2531953886959507 0.3582003209055908 0  1.153316824384777 0.1289850171317837 0  2.148922302309752 0.1258841779285271 0  1.621993280276081 0.2841214267927899 0  1.550118654119087 0.2461998729100966 0  1.327182649291491 0.1216967252533594 0  1.753125 0.04556020050186112 0  1.271875 0.04556020050186116 0  0.9824282234771738 0.05051969257615314 0  1.039510847866381 0.05683351822678641 0  1.94956388244759 0.1180512551534177 0  1.949997712993411 0.04965831614304109 0  1.771961817615021 0.1530278789497521 0  1.909246823951428 0.2812757146784527 0  1.101974016627944 0.2038045618205013 0  0.7906250000000001 0.0444674049654372 0  1.948575539857022 0.2445328248721197 0  1.697271520964565 0.1233917627620729 0  1.065625 0.3689344961371042 0  1.085849084308977 0.3170853572226867 0  0.9840604787624379 0.3582077516409966 0  1.577403511714593 0.05463601888079143 0  0.05622663515370135 0.05493816910862376 0  0.8762396958822678 0.3392249777398821 0  1.751571320346033 0.3651102912045228 0  1.055327852410105 0.111864799513911 0  0.1583785085108421 0.2994699345738728 0  0.1455283439499995 0.3542795598723423 0  2.2 0.35875 0  0.225705107073232 0.05084786997482401 0  0.1455852234589313 0.1166494778469164 0  1.466879772203159 0.3611261772912453 0  1.990280163552011 0.3564754268533217 0  1.17471064520912 0.2990917256188288 0  0.7221925551074015 0.1739659241003985 0  0 0.25625 0  2.2 0.25625 0  2.2 0.05125 0  0 0.15375 0  1.853978576207987 0.35875 0  0.21965520498276 0.1015543880164422 0  1.515638456102889 0.2882700110184686 0  0.09048297387599738 0.3637717362208066 0  2.150453692751374 0.2387066338105111 0  1.323782677156475 0.04897634338873398 0  1.409375 0.03715320121951221 0  1.406484531114799 0.1087852750766809 0  1.134375 0.03715320121951218 0  1.627401732573545 0.04552157221025036 0  0.446875 0.3713289093361426 0  2.045405893604797 0.1105340662939892 0  1.255408269734577 0.1577307500159216 0  2.028125 0.03707597992059326 0  0.04420832937638274 0.128125 0  0.5817551710628505 0.3702615006034757 0  0.1197849154434487 0.2663398672460083 0  1.248258025468107 0.2565907092181813 0  0.1300647302703173 0.0508462728378621 0  0.7738123537510222 0.2761231499240648 0  1.203125 0.0366132337404304 0  0.5444207041612499 0.111205399508622 0  0.8016457771828226 0.1964238426015905 0  2.072662025974815 0.2975086504196739 0  0.4019040438866802 0.2103993403217561 0  0.4677372330974851 0.04827477407630658 0  0.8677218578847617 0.1432970430140788 0  1.058011122005847 0.2758866204059919 0  0.4429405887974043 0.2746184809910084 0  0.5843750000000001 0.03726989681835222 0  0.6318596133730142 0.1128692182767254 0  0.4862628454464408 0.2957029785303028 0  0.7805186758662764 0.3673578380827891 0  1.887722846421017 0.1760882698830035 0  0.3498893058880703 0.256189258793856 0  1.472640588990488 0.1118278026240017 0  1.865937103925594 0.2604137786483804 0
[...]
<PointData  Scalars="f_43"> 
<DataArray  type="Float64"  Name="f_43"  format="ascii">4.4293613619767408e-01  4.7353120150284583e-01  9.6087023115504585e-10  1.1103938539295863e-09  -3.4139163972358377e-01  -3.0517732975409889e-01  -3.2798900748952403e-01  -4.9545417065970809e-01  -9.1273585629442688e-01  8.8306225356042101e-01  2.0168762735963104e+00  4.2042529251397348e-01  -1.1381454173690015e+00  -4.8845109812516169e-01  -2.5904516027206625e-01  -2.3483599981156159e-01  -2.7021230769549615e-01  -4.3933865528327737e-01  -1.1060160046963508e-01  -8.8742515739611616e-02  -2.7232379832136505e-01  -1.1998414184448877e-01  -5.2108697292053544e-02  -5.0005471018266090e-01  4.5193837756129117e-03  7.8509010407460811e-01  9.4700454371316467e-03  -1.8242248185522580e-01  -1.7750624739202892e-01  2.0631865396349987e-02  4.1179634084778580e-02  2.7853701158541647e-02  3.3097539466647931e-02  3.3789669015479883e-02  2.7921193047222979e-02  1.7474161096378355e-02  2.1825266258887744e-02  -7.0380359651566429e-02  -6.6737436381968551e-02  3.3892155689946343e-02  2.5411182640085614e-02  3.3516285375221389e-02  2.8308571248615896e-02  1.8154535813250004e-09  -4.1894393020750119e-02  1.4911089639374852e-02  1.0020781211203870e-02  -1.3180123386814052e-01  8.8372968387466569e-03  1.2899286381294403e-09  -1.2881055360341931e-01  2.5898141710427293e-02  3.3643303487410597e-02  3.0783176171049514e-02  2.6131378921795564e-02  3.7022224988471707e-02  -1.7126960288716436e-02  -2.7693283477391872e-02  -1.7313384393830769e-01  3.9028056434376207e-01  3.6769880280532830e-01  -1.5627785708061642e-01  2.7761941682626703e-02  2.0586150911251710e-02  1.9666279799707486e-02  3.2647286322208126e-02  2.4231516684430823e-02  2.5675936951192239e-02  2.7303993246485535e-02  -2.3538877185351723e-01  1.8417239361518643e-02  8.0878725217765589e-03  2.5736266027017778e-02  -1.7798494041418676e-02  -1.0339676401334265e-02  -2.7530589566634522e-01  5.3953161882707579e-01  5.7346146304345191e-01  -1.6816377715433800e-01  -8.0753687453930495e-02  -1.8565768585934486e-01  3.7079229714530289e-03  3.9210873632912740e-03  1.3987321554983417e-02  3.6671372637345129e-02  3.4553241991726158e-02  -1.2684391071074068e-03  -8.5811251964776958e-02  1.9472869664234581e-02  2.9104848588976211e-02  3.3481970164453756e-02  -1.1207800757947083e-09  2.1540263164376690e-02  3.0770443382830463e-02  3.0313070045364699e-02  1.5867012901079960e-02  -3.3415710725917963e-01  -2.0051061852303270e-01  2.5199657090302856e-02  2.2513752326309904e-02  4.8298608973923557e-01  2.4744496657750394e-02  3.4184877988108889e-02  1.7137432926569485e-01  3.5400538271774820e-02  -1.7873254912941713e-01  -1.9421177103915785e-01  5.1206141855368359e-01  -2.8383216958600310e-03  5.2710947002854299e-03  3.4883552987625735e-03  2.1712826516071548e-02  2.1804238864583247e-01  3.1585254318154551e-02  -1.8767848397420112e-01  -1.9314058666716144e-01  2.3056344141643020e-02  -2.0276564934983352e-01  2.5358423961769884e-02  -1.2871055484610527e-01  1.7900343751020859e-02  1.1035298010021923e-02  -1.4421024516045738e-01  -4.8218618645478051e-02  -2.0243288879708743e-01  2.3468437559321945e-01  9.1759489204500311e-01  7.4008996517172876e-01  -1.5819149685137132e-01  3.0358726026523532e-02  3.4498639326599433e-02  3.3971685630966503e-02  3.0074336898602186e-02  2.8964892693200690e-02  4.8315772315263667e-03  3.4561001681027936e-02  3.2894525106912299e-02  -1.6695052085299328e-01  2.9202399940433468e-02  3.2671668908339037e-02  -4.7302542356878708e-03  4.3077051113766357e-01  4.5510955518616325e-01  3.3236338438625813e-02  2.8543746494747384e-02  -1.8804276970064236e-02  2.3257550884056316e-02  2.1431074591793716e-02  3.1183958736613414e-02  3.4967203342655351e-02  2.5517736454782447e-02  3.5247523208166327e-03  -9.7708544817132051e-02  -9.8708166715989115e-02  -3.8147650436780839e-02  -1.1719338322661503e-01  -8.7270706642634449e-02  2.1756784685361275e-01  4.5921229405139696e-01  1.6015203786737413e-02  -7.1757465309791359e-03  -1.6000114466085358e-01  3.0551513705960136e-02  1.4027222133850263e-02  1.5708234657076679e-02  -3.1796134262961034e-01  2.3115511767690361e-02  1.6767990622666713e-02  2.4337204014491361e-02  -1.9215930123437924e-01  -2.2167456545092981e-01  -1.3297059120736113e-01  2.3270308473828698e-02  4.9920912679900465e-03  2.7174973197873101e-02  2.5202106298760345e-02  3.1538364165616901e-02  3.1951445991898002e-03  8.3186250801614691e-03  1.2993671749880160e-02  1.6105768323472745e-02  1.8679566192781584e-02  9.6193163397860371e-03  -3.5707694248144364e-02  1.9507484956993996e-02  -3.3335218713893672e-01  -6.2552074551770698e-02  2.3405907622384033e-02  -6.0041301519089046e-03  -9.2390811191941841e-02  3.2997297361740750e-02  -1.4711677000582277e-01  -6.4225750146533617e-02  2.4572331220504413e-02  -1.2463615384168716e-01  -1.5942255879019143e-01  3.0977160620249685e-02  -3.2970958656358368e-01  -3.5005410611143600e-01  1.0852123882432467e-02  3.7970776997983485e-02  3.1445126368965973e-02  2.4589118930884009e-02  -2.3432017364318231e-02  2.5946848767025125e-02  2.6008120384753777e-02  3.3791069784909492e-02  2.3663740053507538e-02  4.8645906112514137e-01  -5.1737183349420637e-02  -1.6885921804995727e-01  1.9400744613237219e-02  -3.3879173290354551e-02  -1.1228063369473913e-01  1.9725118861404902e-02  -2.3438636917039282e-01  2.1915865767437648e-02  -1.1992718546178563e-01  3.7571026986632679e-02  3.2806042484609353e-02  -1.1205484278684102e-01  -2.2885701763267360e-01  2.3316082949802027e-02  1.5170212395940515e-03  -1.8126822072709166e-09  3.3794523878061887e-02  1.0393544765306148e-02  4.7852494794957284e-01  3.0150253032334134e-02  1.1371893167635205e+00  2.9551220859451607e-02  2.6500124365037042e-02  5.1170233255215788e-02  2.1793612788912498e-02  4.1414224921173023e-03  2.9478195915936024e-02  3.5306061115487217e-02  3.4931153101527952e-02  2.8527392978275404e-02  3.2279382842746084e-02  -1.0612380348502228e-02  -2.3396746242092844e-03  1.5719431493696399e-02  1.6057888891225860e-02  2.7785240900555234e-02  2.3169448812740974e-02  2.9583862076091628e-02  -7.9333153347074081e-02  2.0386781728687055e-02  3.1653352039204531e-02  2.5113478948663704e-03  1.2987154582869333e-02  -1.9897953918566039e-02  3.2309312988912507e-02  4.7963239991645618e-01  -4.5517746411478224e-02  2.4919542059333818e-02  9.8942759424538208e-03  2.5065332954286074e-01  3.4207774633956395e-01  -5.7393431374178437e-09  1.1979221446483800e-01  3.5809005255368870e-01  3.6872716804021016e-02  1.6148961534527707e-02  2.2799264794513295e-02  -9.2497422239097266e-02  6.9078109744101746e-01  1.2899286381294403e-09  8.4275399040639466e-10  7.1704606279071914e-01  2.5879093279304440e-02  -1.1924132505747659e-01  3.7269530894785130e-02  4.2212594808285342e-01  7.5220717807099585e-04  3.5148279597863152e-02  3.2236416300419998e-02  3.2486688449697099e-02  9.1964013936826454e-03  3.3414708295748663e-02  -1.7206435814965013e-01  1.1146059294069135e-02  3.3651128867637381e-02  1.2151591170025813e-02  6.6028154478478362e-01  -1.7060885690144703e-01  6.8643553929190093e-01  2.3132544938627628e-02  3.9583046788503340e-01  -5.0063490442593915e-02  2.1912140829373778e-02  -2.5760923856086193e-01  -6.7329454127013045e-04  7.2523835447879026e-03  -3.1231638879336154e-01  -1.8546512225428055e-01  1.6711276850530199e-02  2.1827646602230855e-02  -1.9388262825906627e-01  -1.7310838503812079e-01  -1.8988227918439188e-01  -2.0293051598730572e-01  -8.4333042868889957e-02  1.8836277222300454e-02  -3.3825394979543594e-01  2.9905639383274413e-02  2.5127092078392414e-02  2.2063335305037974e-02  3.4265305328199130e-02  -1.1017907228009770e-01  2.7492772921411977e-02  -1.1295732675188265e-01  -1.5586577809943650e-01  -1.0490603532169013e-01  3.2451576682476835e-02  -2.0499753621240324e-01  -1.7857363597220283e-01  2.4465784644016053e-02  -2.6996775267199102e-01  -2.1907693215380938e-01  2.5446198223969891e-02  7.1346615285214597e-03  3.3396059943506896e-02  -3.5474417099042928e-02  1.2204699039568121e-02  -3.2572533621372451e-01  -3.3711451651588475e-01  3.2587723048389125e-02  -3.3990641823935430e-01  9.2504286762759880e-01  2.5648558758229467e-02  8.6021615485730041e-01  1.6079683501720541e-02  1.1023774814350728e-02  -1.9947098818543504e-02  1.1412233843944505e-03  5.8882377872113657e-03  7.3644586540007936e-03  -5.4240323536057268e-03  2.4824728026200719e-02  3.0404201840507752e-02  -1.3858237555465752e-01  -2.6884885198320502e-01  2.6104818165295883e-02  -5.8871007594890522e-02  1.4733045408624948e-02  3.2821838533882659e-02  2.9491624273793534e-02  3.0579501086098759e-02  3.1114598839622160e-02  -1.8095076442096128e-01  -1.7817758522265040e-01  3.5678887201238754e-02  3.2191950655084782e-02  3.1248045125157078e-02  3.2056518594967358e-03  1.7795489238904569e-03  4.4044302328502133e-01  -2.8189140247131533e-01  -1.7617358196361472e-02  2.7869702918568148e-02  2.5422907740111893e-02  2.0292213606788477e-02  -5.9998193871759482e-02  3.1639908057195472e-02  2.0243811118063015e-02  -3.5247327806294290e-02  3.1096624948885449e-02  2.6021779308651363e-02  2.3983811707486580e-02  3.1409218640177400e-01  2.6493800936350832e-02  -1.8768021028939599e-01  -1.8560280101284218e-01  9.1994396161373157e-04  3.0266689569795968e-01  1.0550924522764481e-02  -8.9673926552281489e-03  3.3037082878298242e-02  -2.2864439234572359e-01  1.9513026993188354e-02  7.5450857122118763e-03  3.0058814869950407e-02  3.1940099069525794e-02  -2.4762496957676525e-01  -1.4175879439458622e-01  2.4440630198904936e-02  1.1977363885656416e-02  2.7868160482871718e-02  2.5267167638576529e-02  3.1366801747591988e-02  3.0389883824658639e-03  4.3521737296593555e-01  2.2181965337969043e-02  -1.3155212159064686e-01  -1.8907739119939154e-01  -1.0652889718711112e-01  1.4253756649094906e-02  -3.1875199725146780e-01  2.4095083894565446e-02  -5.1853322937378800e-02  2.1186470431296865e-02  1.9321141124686348e-02  1.6716904468168987e-02  -9.1076167522956223e-03  2.9669159671648723e-02  3.1220998072861030e-02  3.2919513083198536e-02  3.3010973992658663e-02  4.7085454984376862e-01  4.4328964594964643e-01  1.1277129789341367e-02  3.1774903804600456e-02  -5.9838069911746374e-02  -5.4643351787827733e-02  8.9099910169230002e-03  9.0459383766265822e-03  5.7537604311378276e-01  -2.2072405269571096e-01  7.1191752216963977e-01  -1.5734524582437523e-01  2.6945089890478852e-02  -7.6709622431460178e-02  -2.1358635612183194e-02  -2.3894847514444290e-01  3.0453703904786654e-02  7.8124301397362605e-01  -1.6672948195726223e-01  1.1972543386712756e-02  3.6165227925132798e-02  2.7289920100367754e-01  3.7260109786859494e-02  6.1585707445044058e-01  3.0758511054597964e-02  -1.0933915589949166e-01  2.6173967985462485e-02  2.9173731566047540e-02  3.0104965198681489e-02  3.4479041203308615e-02  3.4126256556765364e-02  3.4426755331468654e-02  1.1930852314047573e-02  3.1961410483826808e-02  3.4844002035756820e-02  -1.7833172243791393e-01  1.4767097065605615e-02  -1.9303093835309013e-01  -1.4724078568653517e-01  2.2778475534510588e-02  3.1366976827519176e-02  5.4776413167387672e-01  3.1684296978764986e-02  2.5561399275288482e-02  2.5219241780390572e-01  4.5440565336019118e-01  -1.7283544535337588e-02  5.1680916266535859e-01  2.9296660468935275e-02  -4.5311946344569344e-02  3.1806420223065360e-02  -1.8715670411602187e-01  3.6790372434577868e-02  2.3744974144904504e-02  -1.6019501135242906e-01  -4.6636791605077534e-02  6.7477691267653706e-03  1.1458878519634263e-02  3.5473923944278202e-02  3.8594365010898969e-03  -2.5641250174970147e-02  2.0042083565065339e-03  7.1683833689084055e-04  2.4918841867693799e-02  3.0744922995642781e-02  -3.2479444946524089e-01  3.2297057209795574e-02  1.0899660628839999e-02  2.9217872938947409e-03  6.0810115307945913e-03  1.7297416183821569e-02  4.7425528258247703e-03  2.7571977196161963e-02  2.0842246758025294e-02  2.5533209315080251e-02  1.4554503685116111e-02  -1.8467504046780950e-01  -1.7892862040351779e-01  1.1620278665711851e-01  -6.4453972491856720e-02  -9.6952785896696342e-02  -1.8118853210614780e-01  -1.5728935065236754e-01  1.3817070916412078e+00  -6.9902250518421288e-03  1.7466107385665572e-01  1.7884449270190030e-02  1.4735472623244263e-02  2.1105814852076021e-02  2.4447896535617328e-02  2.7265757465187973e-02  2.0693513889231813e-02  3.2498959640848459e-02  6.2320678172466011e-03  1.9116821260850989e-02  -3.0788973519892271e-01  -1.8383589187325738e-01  2.1103164381345730e-02  -3.2050614592407389e-01  -2.4787090676714099e-01  2.7836741030465455e-02  -2.7221360735170730e-01  -3.3343948709799870e-01  3.1919516227845370e-02  2.6137356955708194e-02  1.3795311620129366e-02  1.1631178836518635e-02  1.9286505387144850e-02  2.0359469568852158e-02  -2.0735618602938982e-01  1.2699188549950259e-02  2.2653828687531293e-02  3.1429282264314289e-02  1.5449362492246066e-02  3.4517968523079257e-02  2.7108445737380874e-03  7.7082823972553826e-03  3.2375439922223838e-02  3.6890174311561642e-02  2.5465257032753107e-02  2.0205592952517344e-03  2.8475547652915358e-02  -1.1496017654010542e-01  -2.6516649525752077e-02  -3.7811126896346900e-02  3.1812771422020679e-02  9.8810099706128831e-03  1.6739095278156142e-03  -2.0553195629227118e-04  -1.7098263182997739e-01  -1.5164397324735093e-01  -1.2816666797024837e-01  4.0775841579870442e-01  1.2887232262917689e-01  -8.3339777440373491e-02  -1.7431272922266997e-01  -1.7026699564079281e-01  -8.2500272791825743e-02  -3.4114537421952057e-02  -9.7841805597540035e-02  -1.4017872990759236e-01  -1.4431603322372222e-01  2.2229279742525268e-02  3.3224286160927236e-02  1.5767096256752853e-02  3.1807062417831558e-02  1.2134153574736500e-02  1.8955347211582527e-02  -1.0158326876661584e-02  2.4873247723565774e-02  -1.3428838783674010e-01  1.3110100967421630e-02  2.8473745080430709e-02  3.3953306572237198e-02  3.1161499792027605e-02  3.0923188062156038e-02  2.7065784833409840e-02  -7.2325447497791379e-02  -4.2898453616178812e-02  -2.9916445264559627e-01  -3.2046345932234521e-01  -1.3791011664665601e-01  1.3926183699345781e-02  2.7999521595346511e-02  2.5016524706931043e-02  3.1886087820600095e-02  4.1064022854254922e-01  2.0395835331136959e-02  3.7101828985680603e-02  3.8160781305045424e-02  -8.4228493103398597e-02  1.8249202472775949e-02  3.0569773375056697e-01  3.5194715419476323e-02  3.3329559867746425e-02  2.4780900192901179e-02  2.4522593162182336e-02  1.8565733673584394e-02  -1.2089833673880118e-01  2.6203121246327680e-02  -5.0206782886373577e-02  2.3254111955397366e-02  2.5661716942132925e-02  2.9321830859726918e-02  -1.4493671336993466e-01  2.2345307893220537e-02  3.7261094137205249e-02  7.5521910574161033e-01  -1.7407656447615105e-01  5.7125955973110452e-03  3.2936883829838996e-02  -2.4733782794266101e-01  -4.8260654937020850e-02  1.0088317388089216e-02  8.3711535716618074e-03  3.4073097972642283e-02  8.1885628824624634e-01  1.9808258107698234e-02  2.9191805965341780e-02  1.8725261832371713e-02  1.7053611086811752e-02  3.8602516759407995e-01  5.9409557155320029e-03  3.4706703700739405e-01  -2.9876914765619326e-02  1.0811920236315876e-02  -3.3651711594870848e-01  -3.4505185865143190e-01  2.5918304491830066e-02  -3.3699893091863542e-01  -1.4515877756073414e-02  2.6190680475525675e-02  2.4450205528340714e-02  2.5311241439077915e-02  1.5392971376583393e-02  1.5278916013966344e-02  7.7616542602359530e-04  1.1767490556408485e-02  -1.5105844181446813e-02  3.1671314542811135e-02  -1.7796855855259794e-01  3.2088457062613096e-02  3.3496963120926398e-02  2.3146443522429973e-02  -6.5846198188034014e-02  -1.0260414286408792e-01  -7.9824946777020206e-02  -5.4675854166916331e-02  3.1626111540873948e-02  3.4653822158731723e-02  -2.4418448555761063e-01  -1.5250049840239660e-01  -1.7785642901011262e-01  3.2060010514410126e-02  6.0015188671927155e-01  3.1103013043180847e-02  1.2717305723513820e-02  -9.0109795154816166e-02  3.5353185651005162e-02  -2.1778390048770432e-01  2.4969136516899904e-02  -3.2720237764703530e-01  1.7627089675949659e-02  -1.3221859053384555e-01  -1.6160393153728550e-01  -1.9141663663509947e-01  2.1049957613826661e-02  3.1547702152815715e-02  3.1972435269874630e-02  2.5448193051112272e-02  2.1391953315583235e-02  -8.1777215731747066e-02  1.1405666097635070e+00  2.4996267062312751e-02  -9.5500204711325282e-03  -3.0084241600563477e-01  2.4975448833723126e-02  2.2868593548248248e-02  3.1025180880761675e-02  2.9510158663868771e-02  2.5588473426281021e-02  2.5773814855943957e-02  4.9574645415073060e-03  3.0268208862542265e-02  1.7617604687396281e-02  -2.1088675847411160e-02  -3.4178261667265793e-02  4.7393240260159836e-01  4.7219127386871945e-01  3.1036365376439345e-02  -2.5797417588656668e-01  1.8230149411685451e-02  8.8795060490526635e-03  3.0985876726265741e-02  6.3387618513548183e-03  2.0156990038258056e-02  3.3070560994970639e-02  6.2054594256568318e-01  -2.8360876702654254e-02  3.6390636245523612e-02  8.8254273383165965e-02  2.6204248457114676e-01  -1.0436829198912173e-01  1.4525645462767439e-02  2.4246016709288273e-02  -2.3190865485265916e-01  -2.1264667017476732e-01  -3.3022555249911040e-01  3.1180535102213788e-02  2.5853298088786492e-02  -2.4825674466087261e-01  4.5659664286708374e-01  7.6872316496919513e-01  7.5113730665111273e-03  -1.3029061197588857e-01  2.3275861625379361e-02  2.4400514925633346e-02  3.2885065288137193e-02  2.4759146434959550e-02  1.8154535813250004e-09  -1.9053690225084499e-01  2.7144026450171978e-02  2.8823127216983271e-03  -1.9732881125434404e-01  -1.8818135555199539e-01  7.4454876982884052e-03  -1.2515991099186191e-01  4.0734710357350135e-01  3.9220775562379562e-01  2.3961511181728415e-02  3.3357199779743683e-02  3.6845884623583978e-02  3.7166605500829952e-02  3.6990187355484046e-02  3.1028462014445531e-02  2.5626693363195740e-02  -1.6335439747036246e-01  3.0553169780335811e-02  3.5550007393797059e-02  1.0002715883096557e-02  4.5422396727149272e-03  -6.4163282646322928e-02  -2.0519074530484388e-01  2.1843774720424664e-02  -1.0925577194552148e-01  6.1458512643184665e-02  -1.1207800757947083e-09  2.2171196190611003e-02  2.3626199578673679e-02  2.0159330689878352e-02  -1.3549442212364934e-01  3.0179473740229029e-02  4.7440384305383557e-03  1.6395075989003166e-02  2.3167951984366945e-02  9.7261756485113367e-03  1.9873822487663693e-03  1.4298212970724354e-02  2.3994265510320100e-03  2.6085135532905625e-03  -4.3952772081033153e-03  2.9833743970175422e-02  2.8005604495329725e-02  -2.0438863085321578e-02  4.1153038352010940e-01  -2.4629326719741696e-03  2.5488429120237119e-02  -4.1720951037115796e-02  1.9894065313542908e-03  2.0704493366810769e-03  5.7811249468341433e-04  -1.8968668886068377e-01  2.4493865481275901e-02  1.6702240588145231e-02  2.7970313266288200e-02  -2.1102639304115439e-01  3.3966045757192441e-02  2.9550065151634615e-02  2.7048089038549394e-02  -1.7543510867192294e-01  -1.8772881352428319e-01  3.2300423848717792e-02  -1.9978683130186869e-01  -2.3189799256860175e-01  -2.2516659543089682e-01  2.5169561498377836e-02  1.8274554766361882e-02  3.2815258234013080e-02  -4.0503347091701974e-01  2.0173130728164665e-02  -1.2093558840849666e-01  3.4168077664982040e-02  3.3781920196138004e-01  -1.5489022357495687e-02  8.2486751864988411e-03  -9.7704661186829980e-02  1.8154535813250004e-09  1.0955470021930240e+00  8.9613405508798927e-01  -1.1179488504275628e-02  -3.9586140472258953e-02  -1.1841444562220754e-01  3.4206167352577026e-02  3.1030211509495850e-02  -1.0838743429756541e-01  1.7082915202411886e-02  -1.6655932358301748e-01  5.4021314683361554e-01  4.8570084060388502e-01  4.9024024268066313e-01  1.6091406570794203e-02  3.8831561420541068e-03  3.6150167238694506e-02  3.4168484969175447e-02  3.3326706621733378e-02  2.3923440006713113e-02  5.4643036697505942e-01  2.1434432127726548e-02  -3.5977408626791557e-01  3.2358512435047386e-02  2.4714006154780088e-02  2.5450871014974327e-02  1.7267193253780164e-02  1.6859994143777993e-02  -1.7809691591964380e-01  2.4278625970889384e-02  -1.8719577808585722e-01  2.8427946101368270e-02  1.88686110001