<?xml version="1.0"?>
<VTKFile type="UnstructuredGrid"  version="0.1"  >
<UnstructuredGrid>
<Piece  NumberOfPoints="2426" NumberOfCells="4534">
<Points>
<DataArray  type="Float64"  NumberOfComponents="3"  format="ascii">0 0.41 0  0 0 0  2.2 0 0  2.2 0.41 0  0.2404508497187474 0.2293892626146237 0  0.25 0.2 0  0.2404508497187474 0.1706107373853764 0  0.2154508497187474 0.1524471741852423 0  0.1845491502812526 0.1524471741852423 0  0.1595491502812526 0.1706107373853764 0  0.15 0.2 0  0.1595491502812526 0.2293892626146237 0  0.1845491502812527 0.2475528258147577 0  0.2154508497187474 0.2475528258147577 0  0.5404508497187474 0.2293892626146237 0  0.55 0.2 0  0.5404508497187474 0.1706107373853764 0  0.5154508497187473 0.1524471741852423 0  0.4845491502812526 0.1524471741852423 0  0.4595491502812526 0.1706107373853764 0  0.45 0.2 0  0.4595491502812526 0.2293892626146237 0  0.4845491502812526 0.2475528258147577 0  0.5154508497187473 0.2475528258147577 0  1.1 0 0  0 0.205 0  1.1 0.41 0  0.55 0 0  0.55 0.41 0  0.275 0 0  0.275 0.41 0  1.65 0.41 0  1.65 0 0  1.375 0 0  1.375 0.41 0  1.925 0 0  1.925 0.41 0  0.8250000000000001 0.41 0  0.8250000000000001 0 0  1.5125 0.205 0  1.7875 0.205 0  0.9625000000000001 0.205 0  1.2375 0.205 0  2.2 0.205 0  0.7560964076246335 0.2151713709677419 0  1.99375 0.2152743902439024 0  2.0625 0 0  0.6875 0 0  2.0625 0.41 0  2.2 0.3075 0  0.6875 0.41 0  1.7875 0.41 0  1.375 0.1486128048780488 0  1.5125 0 0  1.7875 0 0  1.5125 0.41 0  0.9625000000000001 0 0  0.9625000000000001 0.41 0  0.4125 0 0  0.1375 0 0  0.1375 0.41 0  0.4125 0.41 0  1.2375 0 0  1.1 0.1486128048780487 0  1.2375 0.41 0  1.65 0.1486128048780487 0  1.126715909090909 0.2793064024390244 0  1.676715909090909 0.2793064024390244 0  1.348284090909091 0.2793064024390244 0  0.34375 0.3032389320646208 0  1.894702181800738 0.1282910975492754 0  2.092797818199262 0.1282910975492754 0  1.85625 0.3075 0  0.8630851210521902 0.286932093388664 0  0.89375 0.1025 0  0.35 0.1090282786671641 0  0 0.3075 0  0 0.1025 0  0.6526217841291382 0.288229645480046 0  0.7562500000000001 0.09660248895515888 0  0.6568633732316684 0.1557582854763441 0  2.099172119769978 0.25625 0  1.002356446954348 0.1010393851523063 0  1.99375 0.08395950269330846 0  1.459960956013612 0.3075 0  1.569025960719943 0.2986889805672169 0  1.03125 0.3278689922742084 0  0.75625 0.3247156761655783 0  1.959375 0.3126371951219512 0  1.749222215368287 0.1025 0  1.275777784631713 0.1025 0  2.2 0.1025 0  1.225938124459196 0.3075 0  1.550777784631713 0.1025 0  1.44375 0.07430640243902442 0  1.16875 0.07430640243902437 0  0.3528655045338512 0.2063263890916129 0  0.5890337614812103 0.08775733857679162 0  0.8504912436891263 0.190072835691683 0  1.899250267340833 0.2229966846119207 0  0.1020898364287272 0.3140258291809757 0  1.766482954545455 0.2934032012195123 0  1.051658316544432 0.2265720188842194 0  0.2 0.3400647632937836 0  1.421109702350723 0.2261157654379721 0  0.4812500000000001 0.41 0  0.4324401666997539 0.3216425986889796 0  0.098916018031319 0.09171660955420841 0  0.9508742791313441 0.2921736960864468 0  2.13125 0 0  2.118919042110979 0.3422084711244843 0  1.30625 0.41 0  0.20625 0 0  1.597888256393107 0.2173787389261347 0  0.4812500000000001 0 0  0.4324082967851086 0.08384041677422771 0  1.829299675393195 0.07400700849299596 0  0.568219932524165 0.3212274660843853 0  1.71875 0.41 0  0.268005226542646 0.08512186835670006 0  1.16875 0.41 0  2.038220665644273 0.332420740103091 0  0.6678017527842831 0.07701763866051195 0  0.89375 0.41 0  0.5111435174287687 0.07335351331957608 0  0.176193934632343 0.0734896648625108 0  0.07390688010811153 0.1697064032433452 0  0.05452951551825875 0.25625 0  0.61875 0.41 0  1.452769549894695 0.1548122580621249 0  1.369219062229598 0.07430640243902442 0  1.30625 0 0  1.720943423819132 0.1714577452753128 0  1.157188124459196 0.205 0  1.094219062229598 0.07430640243902437 0  1.304056576180868 0.1714577452753128 0  1.67579304192913 0.07430640243902437 0  0.2672907219039591 0.3037570723459566 0  1.209670467133757 0.1362100266964769 0  1.58125 0 0  1.03125 0 0  0.06875000000000001 0.41 0  0 0.35875 0  1.58125 0.41 0  1.631724228912893 0.3381867502687533 0  0.8240147050827157 0.1225233169495944 0  1.825608881788174 0.14499488549201 0  1.85625 0 0  1.44375 0 0  1.44375 0.41 0  1.85625 0.41 0  2.13125 0.41 0  0.7562500000000001 0.41 0  0.7562500000000001 0 0  0.89375 0 0  0.34375 0 0  0.34375 0.41 0  0.20625 0.41 0  0.06875000000000001 0 0  1.16875 0 0  1.03125 0.41 0  0.61875 0 0  1.71875 0 0  1.99375 0 0  1.99375 0.41 0  0.3972301426712326 0.2593842555611471 0  1.340625 0.3489494290853124 0  1.134375 0.3489494290853123 0  1.700180620188976 0.3438659752031281 0  0.5003922072260507 0.341765274319271 0  0.6212513815748759 0.2209216137134851 0  0.6885607720119526 0.215393731583638 0  1.033412357328477 0.1612902025713047 0  2.135782184673599 0.07126652247502523 0  1.668441847249787 0.2129203728327609 0  1.295782514339747 0.2378437748815763 0  1.409375 0.3520314716057996 0  2.129248544730567 0.1906135162504124 0  2.060771381434487 0.1989445750470348 0  2.013252586573865 0.1496169464686054 0  1.942766402200229 0.1734448904596831 0  1.895522487186454 0.06076163953489683 0  2.069553871656643 0.06605731020975725 0  0.9281250000000001 0.3539050257418612 0  1.274680914880868 0.3520219391081363 0  0.3030138498135347 0.2488370856812789 0  0.8223773249563684 0.341761430177996 0  0.9018164060227267 0.2326477848736739 0  0.8143027982392851 0.2440265179987191 0  0.7225087161029304 0.2699907246386231 0  1.614713220494657 0.09473434380863296 0  0.378125 0.3566194660323104 0  0.309375 0.3566194660323104 0  1.72990325744076 0.2380068107952482 0  0.6915936999299305 0.3429472631234433 0  0.6268087624932918 0.3466455500035671 0  1.356580098625191 0.2120393231351682 0  0.3060160055995138 0.1590148921620778 0  0.3954648733249218 0.156380553890791 0  2.034370752044885 0.2668681600792073 0  1.51768709249349 0.3426260931494756 0  1.561883724969884 0.1650446847858835 0  1.197344062229598 0.2523725417393646 0  0.9281250000000001 0.05124999999999999 0  1.804085235518364 0.3468178408964637 0  1.817887819205233 0.2589243285818559 0  0.9107805776841645 0.1653834539923287 0  1.905897727272727 0.3485060975609756 0  0 0.05125 0  0.844212276491354 0.0614201194265309 0  0.378125 0.05244637078450034 0  1.008571329007178 0.2705955969954818 0  0.7724048032149464 0.1559079561351474 0  0.7203054377831548 0.04941826955193545 0  1.192836486056382 0.3562350748565544 0  0.5967108020713719 0.1479294686523888 0  1.28257088594801 0.2944411014911587 0  0.7041890234548132 0.1222025174424443 0  1.474860187679412 0.2504218616229368 0  1.406767003493824 0.2829282258560709 0  0.3201325899091991 0.05890121548989159 0  0.5979220912872258 0.2727591995766724 0  1.845656689180403 0.1998310418452388 0  2.144958525570388 0.2909790873294231 0  2.2 0.15375 0  1.57794966442982 0.3540357145964566 0  0.9483181579620558 0.1214693369582054 0  0.0496154796471391 0.333125 0  1.508991196088596 0.1421783375065625 0  0.09776612425612034 0.2204896805326566 0  1.50436820029908 0.06143401634903343 0  1.223857000523521 0.0823554862453532 0  0.2531953886959507 0.3582003209055908 0  1.153316824384777 0.1289850171317837 0  2.148922302309752 0.1258841779285271 0  1.621993280276081 0.2841214267927899 0  1.550118654119087 0.2461998729100966 0  1.327182649291491 0.1216967252533594 0  1.753125 0.04556020050186112 0  1.271875 0.04556020050186116 0  0.9824282234771738 0.05051969257615314 0  1.039510847866381 0.05683351822678641 0  1.94956388244759 0.1180512551534177 0  1.949997712993411 0.04965831614304109 0  1.771961817615021 0.1530278789497521 0  1.909246823951428 0.2812757146784527 0  1.101974016627944 0.2038045618205013 0  0.7906250000000001 0.0444674049654372 0  1.948575539857022 0.2445328248721197 0  1.697271520964565 0.1233917627620729 0  1.065625 0.3689344961371042 0  1.085849084308977 0.3170853572226867 0  0.9840604787624379 0.3582077516409966 0  1.577403511714593 0.05463601888079143 0  0.05622663515370135 0.05493816910862376 0  0.8762396958822678 0.3392249777398821 0  1.751571320346033 0.3651102912045228 0  1.055327852410105 0.111864799513911 0  0.1583785085108421 0.2994699345738728 0  0.1455283439499995 0.3542795598723423 0  2.2 0.35875 0  0.225705107073232 0.05084786997482401 0  0.1455852234589313 0.1166494778469164 0  1.466879772203159 0.3611261772912453 0  1.990280163552011 0.3564754268533217 0  1.17471064520912 0.2990917256188288 0  0.7221925551074015 0.1739659241003985 0  0 0.25625 0  2.2 0.25625 0  2.2 0.05125 0  0 0.15375 0  1.853978576207987 0.35875 0  0.21965520498276 0.1015543880164422 0  1.515638456102889 0.2882700110184686 0  0.09048297387599738 0.3637717362208066 0  2.150453692751374 0.2387066338105111 0  1.323782677156475 0.04897634338873398 0  1.409375 0.03715320121951221 0  1.406484531114799 0.1087852750766809 0  1.134375 0.03715320121951218 0  1.627401732573545 0.04552157221025036 0  0.446875 0.3713289093361426 0  2.045405893604797 0.1105340662939892 0  1.255408269734577 0.1577307500159216 0  2.028125 0.03707597992059326 0  0.04420832937638274 0.128125 0  0.5817551710628505 0.3702615006034757 0  0.1197849154434487 0.2663398672460083 0  1.248258025468107 0.2565907092181813 0  0.1300647302703173 0.0508462728378621 0  0.7738123537510222 0.2761231499240648 0  1.203125 0.0366132337404304 0  0.5444207041612499 0.111205399508622 0  0.8016457771828226 0.1964238426015905 0  2.072662025974815 0.2975086504196739 0  0.4019040438866802 0.2103993403217561 0  0.4677372330974851 0.04827477407630658 0  0.8677218578847617 0.1432970430140788 0  1.058011122005847 0.2758866204059919 0  0.4429405887974043 0.2746184809910084 0  0.5843750000000001 0.03726989681835222 0  0.6318596133730142 0.1128692182767254 0  0.4862628454464408 0.2957029785303028 0  0.7805186758662764 0.3673578380827891 0  1.887722846421017 0.1760882698830035 0  0.3498893058880703 0.256189258793856 0  1.472640588990488 0.1118278026240017 0  1.865937103925594 0.2604137786483804 0
[...]
<PointData  Scalars="f_43"> 
<DataArray  type="Float64"  Name="f_43"  format="ascii">4.4233796591590258e-01  4.7282880920310943e-01  1.1817595101229351e-09  7.5497448831247987e-10  -3.4205018080623623e-01  -3.0584325045966959e-01  -3.2865579585738020e-01  -4.9611564554897730e-01  -9.1349406809926403e-01  8.8227688674170801e-01  2.0162181354262056e+00  4.1990679945812509e-01  -1.1386619207109427e+00  -4.8911675371440411e-01  -2.5799158821815293e-01  -2.3542953238840378e-01  -2.7276661012903186e-01  -4.4209042341381677e-01  -1.1151498767113248e-01  -8.8945580120471157e-02  -2.7305307194147960e-01  -1.2110819236706470e-01  -5.3032597653293378e-02  -4.9847049133203508e-01  8.2700723671401688e-03  7.8444028500416563e-01  4.6301612675947353e-03  -1.8372231790881779e-01  -1.7760651789108792e-01  1.9796618735750254e-02  4.0723164956438865e-02  2.8273803935900611e-02  3.1572437486977530e-02  2.7903698077306079e-02  3.4164277429378491e-02  1.8846464160684171e-02  1.6590460825454921e-02  -7.3163545321540291e-02  -6.4885837057893664e-02  3.1345054933131507e-02  2.5396841686217253e-02  3.4539678883538531e-02  2.8430627170071821e-02  1.7396220919274266e-09  -4.7718209891651341e-02  9.2539358977421094e-03  1.1019272667840670e-02  -1.3125361679114939e-01  7.3440554515726529e-03  1.0835585901522956e-09  -1.3063795479037066e-01  2.8926730313472780e-02  2.8040086475589480e-02  3.4804660649946077e-02  2.3565425147838950e-02  3.0112583230863105e-02  -2.4156303045745158e-02  -2.2469425458714342e-02  -1.7432412633360689e-01  3.8957586927145604e-01  3.6710481761239439e-01  -1.5639660241717052e-01  2.8227306587898196e-02  2.7080479503313298e-02  1.6896066478657639e-02  3.1834359699152451e-02  1.5811970397000819e-02  2.9100442809261690e-02  3.4291725082327522e-02  -2.3551464109450962e-01  1.9790020583236950e-02  8.9168703975391738e-03  2.4206397721409815e-02  -1.4685011046832468e-02  -1.5282202128608280e-02  -2.7653363865014913e-01  5.3892678530858973e-01  5.7276556984951077e-01  -1.7040411462980920e-01  -7.6982883288187920e-02  -1.8496736907708200e-01  6.3057885141994015e-03  -2.4030470834151912e-03  1.5257761551473452e-02  3.4490017250290543e-02  2.6340188467356827e-02  2.2566091886029706e-03  -9.0127084513527203e-02  1.2498587575145277e-02  2.4695543331394464e-02  2.9576367330142659e-02  -9.7422087299560886e-10  1.6821751652919596e-02  3.5489526660706344e-02  2.9953538149517140e-02  2.3960795262587705e-02  -3.3470199870480150e-01  -2.0204000648649320e-01  2.3837138747306773e-02  1.8846280998309442e-02  4.8238396917987525e-01  3.0145397719289840e-02  2.9339421813188552e-02  1.7079993825353992e-01  3.5415723101886509e-02  -1.7874227373603044e-01  -1.9434892006504823e-01  5.1136178713704661e-01  3.3986757503530322e-03  5.7082500336971204e-03  5.2286599987607261e-03  2.6970591392422038e-02  2.1729916578841643e-01  2.7528899884175482e-02  -1.8901646469548791e-01  -1.9429280054949372e-01  2.1517359038077884e-02  -2.0253378618063672e-01  3.0313060309729536e-02  -1.2950621846826033e-01  9.7012119583656520e-03  7.3370703596460423e-03  -1.4356503358497766e-01  -4.6882332971178949e-02  -2.0395121328218413e-01  2.3397117520475830e-01  9.1692178536429048e-01  7.3946963662149123e-01  -1.5880231479976417e-01  3.1608728700300161e-02  2.6521980921899037e-02  2.8053286133981625e-02  2.6626584379719355e-02  2.6144423610608834e-02  8.6286926433143205e-03  2.9395865471954285e-02  2.9994768828851916e-02  -1.6747126844406690e-01  3.0446396377471204e-02  3.5015718839918115e-02  -8.6386589531234331e-03  4.3017078250937502e-01  4.5451115599192493e-01  2.7128489293318875e-02  2.6329856256847417e-02  -1.9251251508549075e-02  2.1273979560169520e-02  2.1285851343576082e-02  3.1051953752203036e-02  3.4547868704772819e-02  2.3640000621419612e-02  4.4221889980440160e-03  -1.0101123492945069e-01  -9.6368106889497498e-02  -4.0998230878352575e-02  -1.1819020451441074e-01  -8.7568316031268842e-02  2.1701473598289076e-01  4.5851180142488301e-01  2.2194517803054894e-02  -4.5869382449730363e-03  -1.6076240852270490e-01  2.7095015889740386e-02  1.5283319812635365e-02  1.0649988770492284e-02  -3.1765648604523083e-01  3.1895658035135034e-02  7.8446958930090734e-03  2.9966215123474856e-02  -1.9208575821419022e-01  -2.2066380850263839e-01  -1.3593789260675004e-01  2.4261265908158552e-02  5.5308910269391189e-03  2.9050502664906691e-02  3.2600099687532649e-02  3.6295495423020158e-02  5.0589768758822797e-03  7.8525576444094265e-03  1.3890684074639567e-02  1.6974896437049886e-02  2.0042175036364525e-02  1.0768091822700103e-02  -3.1315216312103072e-02  2.1598559993450044e-02  -3.3384056903958520e-01  -6.5863313558226069e-02  3.2060100399593075e-02  -7.8054284044374962e-03  -1.0052898907351968e-01  3.4120767663286811e-02  -1.4730897683730865e-01  -6.4609220357361538e-02  3.0315664889103339e-02  -1.2695194932476453e-01  -1.6010225083158186e-01  3.3904962816264907e-02  -3.3054381882434197e-01  -3.5150538555001171e-01  7.6500482211055570e-03  2.9376315521501880e-02  3.4537547263982060e-02  2.1229240382773941e-02  -2.9499621423462401e-02  2.8590604367481124e-02  2.7394299065328184e-02  2.4457340091531547e-02  1.8485794141471144e-02  4.8575679987943604e-01  -5.0386725006576656e-02  -1.6995944088067880e-01  2.0444556689942751e-02  -2.7586287054126076e-02  -1.1061238830912716e-01  1.0950899428829177e-02  -2.3784510954541890e-01  2.5912522290612073e-02  -1.1479970776637928e-01  3.2080430835922671e-02  3.5787041924239912e-02  -1.1299767724323494e-01  -2.2750597576859052e-01  2.2023561321224700e-02  4.0501869725909755e-03  -9.6384782028928527e-10  2.6000455278423568e-02  2.7351891890095002e-03  4.7792450660686403e-01  3.4310595873868248e-02  1.1365554737949457e+00  3.4524046575844403e-02  2.9588784702720628e-02  5.0662293491026231e-02  2.7437365998667244e-02  4.2888693138503787e-03  2.6735861663335341e-02  2.6991263432101169e-02  2.7843125887087018e-02  2.4764589452054994e-02  2.8824155525563416e-02  -1.8787600775349387e-02  -6.2881031174410011e-03  1.7543042671612139e-02  1.7703717140584711e-02  2.2854832939080298e-02  1.7990579561630235e-02  2.7270371660815924e-02  -7.6288831807346927e-02  1.2534518619716864e-02  2.8371029624825600e-02  1.9421271946511497e-03  9.0821752495368925e-03  -1.3518266226977599e-02  3.5506448529330027e-02  4.7893089101676106e-01  -4.5299716306124178e-02  3.0544346090340527e-02  1.0073476923502115e-02  2.5005912517607032e-01  3.4148308300875291e-01  -5.2035363030064318e-09  1.1904169562036183e-01  3.5737913666706350e-01  3.3674311196669693e-02  1.0271589000971436e-02  1.4053282342626750e-02  -8.6129079727745070e-02  6.9015870978258331e-01  1.0835585901522956e-09  9.9630490050476450e-10  7.1636826403415932e-01  2.4103806557226857e-02  -1.1995788308553190e-01  2.9517605555004444e-02  4.2152617926220587e-01  4.2712827139668157e-03  2.7318672042987741e-02  2.8440533449664615e-02  2.8184887635292158e-02  1.5964193935276458e-02  3.3141478445931676e-02  -1.7210984539590313e-01  1.2204421006325746e-02  3.0578142215644033e-02  1.3263606116211100e-02  6.5959213227463320e-01  -1.7080296334927472e-01  6.8583387966345477e-01  2.6404767794768347e-02  3.9512775602333944e-01  -5.5847551481663045e-02  2.6672083594702065e-02  -2.5984753205762401e-01  -4.1390835419071896e-04  6.3396477633616910e-03  -3.1270230674345750e-01  -1.8678616746009022e-01  9.7587724254955821e-03  1.7601713197929820e-02  -1.9441800055272559e-01  -1.7430399648969738e-01  -1.9031706957000138e-01  -2.0301071551692640e-01  -8.8177005005967021e-02  1.9503427476199223e-02  -3.3815872295575372e-01  3.2292518049710416e-02  2.2842897511675973e-02  1.7564867904719800e-02  3.2586769655184776e-02  -1.1077467869857821e-01  3.5828897807822037e-02  -1.1559145781473419e-01  -1.5654855720165897e-01  -1.0792357252085823e-01  3.1480867591490748e-02  -2.0586533019792333e-01  -1.7978016370847416e-01  3.0308691429769666e-02  -2.6883882787615415e-01  -2.1915081165799652e-01  2.9819541616466071e-02  7.9424772531342183e-03  3.0413653034728400e-02  -3.6997347919605385e-02  8.7448373105453309e-03  -3.2634619291410460e-01  -3.3778361900179438e-01  3.4218658516563923e-02  -3.4111127159017246e-01  9.2434476940936650e-01  2.8043520819594284e-02  8.5956909088504230e-01  9.3384329563577662e-03  1.6688802790517529e-02  -1.5506161881217803e-02  2.9998262320928390e-03  5.9839716679246976e-03  6.6167351760593089e-03  2.7825020870652381e-04  3.0545712142140954e-02  2.7246336988419672e-02  -1.3979114494058925e-01  -2.7014607819235520e-01  2.2544328908120356e-02  -5.9924539293130213e-02  8.6429462756643684e-03  3.6591824343506968e-02  3.1115484264126511e-02  3.3096076903636834e-02  3.0924301166068525e-02  -1.8094685712412870e-01  -1.7939395633817695e-01  2.8209124850313471e-02  2.9372564382313740e-02  2.7587591999302483e-02  3.3469575595184357e-03  2.9115881929851740e-03  4.3984434473400325e-01  -2.8285475583492592e-01  -1.8454706855495488e-02  2.7734876386898533e-02  2.2828808339119946e-02  2.0607045811844908e-02  -5.7188577957791149e-02  3.5450351584906128e-02  1.4238059804227271e-02  -3.7508540285606316e-02  2.1665818814764655e-02  2.6645368523233910e-02  3.0919121843777153e-02  3.1337382640989930e-01  2.8349103944751632e-02  -1.8903464681938861e-01  -1.8700102118829576e-01  1.9982137069043436e-03  3.0208712916838071e-01  1.1253042924154348e-02  -4.9223053547325854e-03  2.9812634573251850e-02  -2.2830884076542945e-01  1.5652902151861520e-02  8.0689467874629790e-03  3.2219773059583540e-02  2.6520286172758142e-02  -2.4584319482436914e-01  -1.4734259895552218e-01  2.7706422741410129e-02  1.9161029915389819e-02  1.9526148920895287e-02  3.0240511860594288e-02  2.2684869182432735e-02  2.4028169854541279e-03  4.3451695546005004e-01  3.0009595990319420e-02  -1.3116666752699915e-01  -1.8922796513360429e-01  -1.1093323470922564e-01  1.5555032969978231e-02  -3.1943506457282950e-01  2.0117855487117673e-02  -5.1931806741379712e-02  2.1147431933885411e-02  2.0216044257548606e-02  1.8711074933207096e-02  -1.7211426722422051e-02  3.4501769842705192e-02  2.7185893904430571e-02  3.0591724877650408e-02  3.1692186982103028e-02  4.7015266584268056e-01  4.4269137336895792e-01  8.0373469203142769e-03  2.9413015325319380e-02  -6.1812434033099106e-02  -5.5551387696506194e-02  8.4450215972980396e-03  1.6927474237792121e-02  5.7476961895560930e-01  -2.2284658080133340e-01  7.1122569993360985e-01  -1.5770844812955556e-01  2.3153214072461618e-02  -6.9950406077478419e-02  -1.4934425659124780e-02  -2.3999746104628195e-01  3.2984185528593148e-02  7.8057016981280380e-01  -1.6745365961342862e-01  1.3063879261644398e-02  3.4319612908633196e-02  2.7232043280405549e-01  2.9112649376660017e-02  6.1524522026247053e-01  3.5268803738102143e-02  -1.0643486824556951e-01  2.7119888988486322e-02  3.0638567612643594e-02  2.5585545431044319e-02  2.8715233594187609e-02  2.7301464285731769e-02  2.7100074364922799e-02  1.6012878959281017e-02  2.9326984994707345e-02  2.7882853061082770e-02  -1.7884873232267912e-01  1.6183424116968190e-02  -1.9364422597873493e-01  -1.4747814385629748e-01  2.8266421945170352e-02  3.0134143368304334e-02  5.4706583914643880e-01  2.5452893609705037e-02  2.7933029995942011e-02  2.5146657583856002e-01  4.5370517583021547e-01  -1.2487972153148789e-02  5.1610875842172110e-01  2.7006385086814258e-02  -4.1767875256045132e-02  3.2593733140937421e-02  -1.8854456126572947e-01  2.8850826104504550e-02  2.2354597627601881e-02  -1.5783518740756786e-01  -4.5291375110410891e-02  6.9070196486252858e-03  7.2993727454024977e-03  2.7976267465664638e-02  5.5610066967987501e-03  -2.6916947509909517e-02  5.7348819836462771e-03  2.7499989692024822e-03  3.0502514161232196e-02  3.5886252051716215e-02  -3.2542496955970529e-01  2.7661972864080342e-02  5.8922319725612246e-03  3.0227876707009235e-03  7.0926167824981162e-03  1.3037045904652905e-02  5.4598234946282732e-03  2.4638020072908429e-02  2.0736195897289492e-02  2.2023706308597572e-02  1.4001479131079865e-02  -1.8472081211749375e-01  -1.7891946284391685e-01  1.1542237115073994e-01  -6.8298481731941710e-02  -9.4453861750289067e-02  -1.8120743170280254e-01  -1.5741288859471733e-01  1.3810403861893976e+00  -1.3042521726115456e-02  1.7411273186935300e-01  8.8245148682107484e-03  7.2875542765288744e-03  2.7089963020749373e-02  3.1282163127983792e-02  3.4594295700733600e-02  1.1151481499576728e-02  3.0711215037109094e-02  6.2158033969322048e-03  1.2836926154188154e-02  -3.0893324535575445e-01  -1.8510985670329935e-01  2.0712974670720759e-02  -3.2119165852395293e-01  -2.4963254754080916e-01  2.8555819459007824e-02  -2.7249997832529027e-01  -3.3340351907318622e-01  3.6772190458863263e-02  2.9503621844806729e-02  1.3132989324851886e-02  1.0737532435245375e-02  1.2366951729865084e-02  2.1831752598660804e-02  -2.0899643383109390e-01  6.1697821848009250e-03  1.5813443312924929e-02  2.2751476532442933e-02  2.2349667152723230e-02  2.7607375174861146e-02  2.8334658148282807e-03  8.4776175379617322e-03  2.9066323154917924e-02  3.2596523744842967e-02  3.0250543432661807e-02  1.0642960827364021e-03  2.5094074993865435e-02  -1.1344514433336976e-01  -3.1940644203631637e-02  -3.4007855826581286e-02  3.5203986040766286e-02  1.5946198441485232e-02  2.4679985393058781e-03  -2.2654764898558864e-04  -1.7102968827738776e-01  -1.5273730526182044e-01  -1.2836714640361710e-01  4.0715930370644660e-01  1.2835795562388214e-01  -8.6797886491637666e-02  -1.7544936575167608e-01  -1.7053802913532734e-01  -7.9961509422533494e-02  -3.4492650594125977e-02  -9.8137490372463027e-02  -1.4045244530289630e-01  -1.4543703635080518e-01  2.6204827114072040e-02  3.3603445846868543e-02  1.7176364897383070e-02  2.8544458838070441e-02  1.3248812807353889e-02  1.3384478439313331e-02  -1.6550905872964712e-02  3.0335425737234752e-02  -1.3756813721794653e-01  1.4165467144615489e-02  3.6745576392494851e-02  3.4020394713119698e-02  3.1918158698822932e-02  3.0391074875478857e-02  3.1452735729342561e-02  -7.5748222681725250e-02  -4.3959483423283055e-02  -2.9896053122349703e-01  -3.2064326542402227e-01  -1.3241056289797923e-01  1.2382700737690712e-02  3.5272516086534221e-02  3.1863189611621670e-02  3.3630671509425787e-02  4.0993699817930712e-01  1.0068818920558626e-02  2.7762976537074911e-02  3.1645805563234493e-02  -8.7490754687479577e-02  1.9532397714026983e-02  3.0511734808273083e-01  3.5683968870687512e-02  3.5313326895868316e-02  3.0324518602682871e-02  2.0257864763329875e-02  2.2461509345867086e-02  -1.2297866353167891e-01  2.9072516308565142e-02  -5.0665829362321307e-02  2.1343058362656538e-02  2.9157596463233574e-02  3.2171740884588282e-02  -1.4652123913238274e-01  1.6317744995033214e-02  3.1344791067529472e-02  7.5458379203594372e-01  -1.7482892513301190e-01  1.3352766614456562e-02  3.4491805222473776e-02  -2.4742493841698318e-01  -4.8389071208766669e-02  1.1132833320437560e-02  9.6628702228589575e-03  2.8987394815328721e-02  8.1823993901848879e-01  1.7200919079422630e-02  2.8463920600683514e-02  1.6796215494733882e-02  1.8896712487932114e-02  3.8542764803404267e-01  6.1633539741063640e-03  3.4635703849765975e-01  -2.4511869507541948e-02  7.0638363600825710e-03  -3.3804084186704758e-01  -3.4607485990685005e-01  2.8051224206121394e-02  -3.3734480313451637e-01  -2.0784375275190590e-02  2.6315748235897624e-02  2.9590648312367414e-02  2.5059482457475558e-02  1.7113929848494851e-02  7.0078718147238740e-03  2.7236719603471338e-03  1.1038415024510822e-02  -2.1291408758214624e-02  3.4954303722388051e-02  -1.7810051826268530e-01  3.5474489729601176e-02  3.2412792543520461e-02  1.8305589105121357e-02  -6.3535058620444479e-02  -1.1083459251533076e-01  -8.5685759710957141e-02  -6.4221705446509306e-02  2.6970050224030605e-02  2.7187229430862627e-02  -2.4714686823542983e-01  -1.5318296945498849e-01  -1.7802933282765773e-01  2.6588709575982642e-02  5.9945033302519335e-01  3.3372315091341150e-02  1.2268591797282199e-02  -9.1057284460254656e-02  2.7002066132059067e-02  -2.1895413633512353e-01  2.1945370345885014e-02  -3.2834276463177292e-01  2.3715279653218613e-02  -1.3325703824368160e-01  -1.6274036736919315e-01  -1.9258742144174992e-01  1.4528390634854895e-02  3.1411963398079466e-02  3.5358328705963400e-02  2.6812376350719973e-02  1.2786988946722970e-02  -7.8505380252382739e-02  1.1399649682382216e+00  3.0472380622707875e-02  -7.2422856043978922e-03  -3.0025263142221414e-01  2.8970828705037074e-02  2.1222844545301035e-02  3.0525872548138228e-02  3.2543281153321044e-02  2.8890214656815322e-02  2.5854134517031346e-02  6.6811930344070668e-03  3.4052962842855646e-02  1.1936886524495788e-02  -2.7686484819072002e-02  -3.7594212906072177e-02  4.7322979183817709e-01  4.7148880620756933e-01  3.4913475017245392e-02  -2.5840634543794522e-01  1.9814722993439796e-02  1.3611249231235696e-02  2.7976703044098515e-02  9.2193435438559703e-03  2.4981447992592637e-02  2.6844648267239205e-02  6.1993952641416405e-01  -2.5151167699327119e-02  2.7032760217342803e-02  8.7662404989823972e-02  2.6145142170416841e-01  -1.0495742515731482e-01  1.5890233705624340e-02  3.1773460786490605e-02  -2.3430406116398136e-01  -2.1446010188006134e-01  -3.3107452585547237e-01  2.9716466064127593e-02  2.5254037109628952e-02  -2.5118559344917207e-01  4.5589587114152863e-01  7.6809123046321481e-01  8.5415662066110429e-03  -1.2790731084347201e-01  2.1917376964529955e-02  2.4548569579996356e-02  3.2968825347707106e-02  2.1599005938503758e-02  1.7396220919274266e-09  -1.9079405840698804e-01  2.8152776420245419e-02  2.9040127882696866e-03  -1.9719056848408725e-01  -1.8855788418190331e-01  6.9604980511895715e-03  -1.2381651400299326e-01  4.0674737966823810e-01  3.9160854924785260e-01  1.9241308890125770e-02  3.5216506750314326e-02  3.4078269289465585e-02  3.2569181680338413e-02  3.1104455740520696e-02  3.0394584202530481e-02  2.2654558497199061e-02  -1.6439674773395516e-01  3.5792052705945890e-02  3.5600457251684300e-02  9.4298519825286344e-03  4.3685559176625775e-03  -6.1359956433257097e-02  -2.0621085581873910e-01  2.0576771252055419e-02  -1.1012222227308620e-01  6.0655909397236613e-02  -9.7422087299560886e-10  2.2658836970123053e-02  2.9410199456619098e-02  2.2791442681102149e-02  -1.3306132835249507e-01  2.6020987494410092e-02  9.4409723046762206e-03  9.0164666922571048e-03  1.3965572278287670e-02  3.2442290371055794e-03  -5.0444357650826221e-03  9.6290808166052521e-03  -1.8328609350718287e-03  2.0379428380753713e-03  -1.1751701003632478e-02  3.3168974748276382e-02  2.6629652547833390e-02  -1.5006613876956868e-02  4.1082840153205624e-01  -4.8093500457637535e-03  2.9754138090305814e-02  -4.0677128638235867e-02  4.4814458000390382e-03  5.1203001237208759e-03  2.3268337687457246e-03  -1.9104597931290793e-01  2.2103903355319789e-02  9.9889937347338361e-03  2.1711942362567224e-02  -2.1287021301744632e-01  2.8094522285898531e-02  2.5964297406467978e-02  2.3962270262191020e-02  -1.7657639007265297e-01  -1.8916400430045618e-01  3.4650090883690893e-02  -1.9988730260116100e-01  -2.2983354986170240e-01  -2.2442156894870749e-01  2.9194875684134456e-02  2.5354649500877083e-02  3.0674895416818209e-02  -4.0570879649297065e-01  1.3316058583137622e-02  -1.1990928784826489e-01  2.8855133418856874e-02  3.3722940866898748e-01  -1.2956878780190592e-02  1.5393616952495536e-02  -9.4955601587358746e-02  1.7396220919274266e-09  1.0948895525469051e+00  8.9550168396609031e-01  -5.4461131349535022e-03  -3.6178106889086882e-02  -1.2391382492406762e-01  2.5664849706723697e-02  2.5968657694423927e-02  -1.1160712409068875e-01  1.8901108134759616e-02  -1.6755848908206916e-01  5.3960858577859683e-01  4.8510042819973659e-01  4.8963834073244855e-01  1.7905438811342916e-02  6.5035754267168608e-03  2.8624725893900312e-02  2.6782392412753053e-02  2.6477156520783189e-02  3.3236136231387686e-02  5.4569800608851282e-01  2.7695973519447196e-02  -3.6043052134712378e-01  3.3300680562150714e-02  2.3231344821167493e-02  2.9866735470832469e-02  1.8971101130871141e-02  1.8337249893305620e-02  -1.7827268695266638e-01  3.0807614708069232e-02  -1.8714845721637027e-01  2.3999501337172786e-02  1.10636678376