<?xml version="1.0"?>
<VTKFile type="UnstructuredGrid"  version="0.1"  >
<UnstructuredGrid>
<Piece  NumberOfPoints="2426" NumberOfCells="4534">
<Points>
<DataArray  type="Float64"  NumberOfComponents="3"  format="ascii">0 0.41 0  0 0 0  2.2 0 0  2.2 0.41 0  0.2404508497187474 0.2293892626146237 0  0.25 0.2 0  0.2404508497187474 0.1706107373853764 0  0.2154508497187474 0.1524471741852423 0  0.1845491502812526 0.1524471741852423 0  0.1595491502812526 0.1706107373853764 0  0.15 0.2 0  0.1595491502812526 0.2293892626146237 0  0.1845491502812527 0.2475528258147577 0  0.2154508497187474 0.2475528258147577 0  0.5404508497187474 0.2293892626146237 0  0.55 0.2 0  0.5404508497187474 0.1706107373853764 0  0.5154508497187473 0.1524471741852423 0  0.4845491502812526 0.1524471741852423 0  0.4595491502812526 0.1706107373853764 0  0.45 0.2 0  0.4595491502812526 0.2293892626146237 0  0.4845491502812526 0.2475528258147577 0  0.5154508497187473 0.2475528258147577 0  1.1 0 0  0 0.205 0  1.1 0.41 0  0.55 0 0  0.55 0.41 0  0.275 0 0  0.275 0.41 0  1.65 0.41 0  1.65 0 0  1.375 0 0  1.375 0.41 0  1.925 0 0  1.925 0.41 0  0.8250000000000001 0.41 0  0.8250000000000001 0 0  1.5125 0.205 0  1.7875 0.205 0  0.9625000000000001 0.205 0  1.2375 0.205 0  2.2 0.205 0  0.7560964076246335 0.2151713709677419 0  1.99375 0.2152743902439024 0  2.0625 0 0  0.6875 0 0  2.0625 0.41 0  2.2 0.3075 0  0.6875 0.41 0  1.7875 0.41 0  1.375 0.1486128048780488 0  1.5125 0 0  1.7875 0 0  1.5125 0.41 0  0.9625000000000001 0 0  0.9625000000000001 0.41 0  0.4125 0 0  0.1375 0 0  0.1375 0.41 0  0.4125 0.41 0  1.2375 0 0  1.1 0.1486128048780487 0  1.2375 0.41 0  1.65 0.1486128048780487 0  1.126715909090909 0.2793064024390244 0  1.676715909090909 0.2793064024390244 0  1.348284090909091 0.2793064024390244 0  0.34375 0.3032389320646208 0  1.894702181800738 0.1282910975492754 0  2.092797818199262 0.1282910975492754 0  1.85625 0.3075 0  0.8630851210521902 0.286932093388664 0  0.89375 0.1025 0  0.35 0.1090282786671641 0  0 0.3075 0  0 0.1025 0  0.6526217841291382 0.288229645480046 0  0.7562500000000001 0.09660248895515888 0  0.6568633732316684 0.1557582854763441 0  2.099172119769978 0.25625 0  1.002356446954348 0.1010393851523063 0  1.99375 0.08395950269330846 0  1.459960956013612 0.3075 0  1.569025960719943 0.2986889805672169 0  1.03125 0.3278689922742084 0  0.75625 0.3247156761655783 0  1.959375 0.3126371951219512 0  1.749222215368287 0.1025 0  1.275777784631713 0.1025 0  2.2 0.1025 0  1.225938124459196 0.3075 0  1.550777784631713 0.1025 0  1.44375 0.07430640243902442 0  1.16875 0.07430640243902437 0  0.3528655045338512 0.2063263890916129 0  0.5890337614812103 0.08775733857679162 0  0.8504912436891263 0.190072835691683 0  1.899250267340833 0.2229966846119207 0  0.1020898364287272 0.3140258291809757 0  1.766482954545455 0.2934032012195123 0  1.051658316544432 0.2265720188842194 0  0.2 0.3400647632937836 0  1.421109702350723 0.2261157654379721 0  0.4812500000000001 0.41 0  0.4324401666997539 0.3216425986889796 0  0.098916018031319 0.09171660955420841 0  0.9508742791313441 0.2921736960864468 0  2.13125 0 0  2.118919042110979 0.3422084711244843 0  1.30625 0.41 0  0.20625 0 0  1.597888256393107 0.2173787389261347 0  0.4812500000000001 0 0  0.4324082967851086 0.08384041677422771 0  1.829299675393195 0.07400700849299596 0  0.568219932524165 0.3212274660843853 0  1.71875 0.41 0  0.268005226542646 0.08512186835670006 0  1.16875 0.41 0  2.038220665644273 0.332420740103091 0  0.6678017527842831 0.07701763866051195 0  0.89375 0.41 0  0.5111435174287687 0.07335351331957608 0  0.176193934632343 0.0734896648625108 0  0.07390688010811153 0.1697064032433452 0  0.05452951551825875 0.25625 0  0.61875 0.41 0  1.452769549894695 0.1548122580621249 0  1.369219062229598 0.07430640243902442 0  1.30625 0 0  1.720943423819132 0.1714577452753128 0  1.157188124459196 0.205 0  1.094219062229598 0.07430640243902437 0  1.304056576180868 0.1714577452753128 0  1.67579304192913 0.07430640243902437 0  0.2672907219039591 0.3037570723459566 0  1.209670467133757 0.1362100266964769 0  1.58125 0 0  1.03125 0 0  0.06875000000000001 0.41 0  0 0.35875 0  1.58125 0.41 0  1.631724228912893 0.3381867502687533 0  0.8240147050827157 0.1225233169495944 0  1.825608881788174 0.14499488549201 0  1.85625 0 0  1.44375 0 0  1.44375 0.41 0  1.85625 0.41 0  2.13125 0.41 0  0.7562500000000001 0.41 0  0.7562500000000001 0 0  0.89375 0 0  0.34375 0 0  0.34375 0.41 0  0.20625 0.41 0  0.06875000000000001 0 0  1.16875 0 0  1.03125 0.41 0  0.61875 0 0  1.71875 0 0  1.99375 0 0  1.99375 0.41 0  0.3972301426712326 0.2593842555611471 0  1.340625 0.3489494290853124 0  1.134375 0.3489494290853123 0  1.700180620188976 0.3438659752031281 0  0.5003922072260507 0.341765274319271 0  0.6212513815748759 0.2209216137134851 0  0.6885607720119526 0.215393731583638 0  1.033412357328477 0.1612902025713047 0  2.135782184673599 0.07126652247502523 0  1.668441847249787 0.2129203728327609 0  1.295782514339747 0.2378437748815763 0  1.409375 0.3520314716057996 0  2.129248544730567 0.1906135162504124 0  2.060771381434487 0.1989445750470348 0  2.013252586573865 0.1496169464686054 0  1.942766402200229 0.1734448904596831 0  1.895522487186454 0.06076163953489683 0  2.069553871656643 0.06605731020975725 0  0.9281250000000001 0.3539050257418612 0  1.274680914880868 0.3520219391081363 0  0.3030138498135347 0.2488370856812789 0  0.8223773249563684 0.341761430177996 0  0.9018164060227267 0.2326477848736739 0  0.8143027982392851 0.2440265179987191 0  0.7225087161029304 0.2699907246386231 0  1.614713220494657 0.09473434380863296 0  0.378125 0.3566194660323104 0  0.309375 0.3566194660323104 0  1.72990325744076 0.2380068107952482 0  0.6915936999299305 0.3429472631234433 0  0.6268087624932918 0.3466455500035671 0  1.356580098625191 0.2120393231351682 0  0.3060160055995138 0.1590148921620778 0  0.3954648733249218 0.156380553890791 0  2.034370752044885 0.2668681600792073 0  1.51768709249349 0.3426260931494756 0  1.561883724969884 0.1650446847858835 0  1.197344062229598 0.2523725417393646 0  0.9281250000000001 0.05124999999999999 0  1.804085235518364 0.3468178408964637 0  1.817887819205233 0.2589243285818559 0  0.9107805776841645 0.1653834539923287 0  1.905897727272727 0.3485060975609756 0  0 0.05125 0  0.844212276491354 0.0614201194265309 0  0.378125 0.05244637078450034 0  1.008571329007178 0.2705955969954818 0  0.7724048032149464 0.1559079561351474 0  0.7203054377831548 0.04941826955193545 0  1.192836486056382 0.3562350748565544 0  0.5967108020713719 0.1479294686523888 0  1.28257088594801 0.2944411014911587 0  0.7041890234548132 0.1222025174424443 0  1.474860187679412 0.2504218616229368 0  1.406767003493824 0.2829282258560709 0  0.3201325899091991 0.05890121548989159 0  0.5979220912872258 0.2727591995766724 0  1.845656689180403 0.1998310418452388 0  2.144958525570388 0.2909790873294231 0  2.2 0.15375 0  1.57794966442982 0.3540357145964566 0  0.9483181579620558 0.1214693369582054 0  0.0496154796471391 0.333125 0  1.508991196088596 0.1421783375065625 0  0.09776612425612034 0.2204896805326566 0  1.50436820029908 0.06143401634903343 0  1.223857000523521 0.0823554862453532 0  0.2531953886959507 0.3582003209055908 0  1.153316824384777 0.1289850171317837 0  2.148922302309752 0.1258841779285271 0  1.621993280276081 0.2841214267927899 0  1.550118654119087 0.2461998729100966 0  1.327182649291491 0.1216967252533594 0  1.753125 0.04556020050186112 0  1.271875 0.04556020050186116 0  0.9824282234771738 0.05051969257615314 0  1.039510847866381 0.05683351822678641 0  1.94956388244759 0.1180512551534177 0  1.949997712993411 0.04965831614304109 0  1.771961817615021 0.1530278789497521 0  1.909246823951428 0.2812757146784527 0  1.101974016627944 0.2038045618205013 0  0.7906250000000001 0.0444674049654372 0  1.948575539857022 0.2445328248721197 0  1.697271520964565 0.1233917627620729 0  1.065625 0.3689344961371042 0  1.085849084308977 0.3170853572226867 0  0.9840604787624379 0.3582077516409966 0  1.577403511714593 0.05463601888079143 0  0.05622663515370135 0.05493816910862376 0  0.8762396958822678 0.3392249777398821 0  1.751571320346033 0.3651102912045228 0  1.055327852410105 0.111864799513911 0  0.1583785085108421 0.2994699345738728 0  0.1455283439499995 0.3542795598723423 0  2.2 0.35875 0  0.225705107073232 0.05084786997482401 0  0.1455852234589313 0.1166494778469164 0  1.466879772203159 0.3611261772912453 0  1.990280163552011 0.3564754268533217 0  1.17471064520912 0.2990917256188288 0  0.7221925551074015 0.1739659241003985 0  0 0.25625 0  2.2 0.25625 0  2.2 0.05125 0  0 0.15375 0  1.853978576207987 0.35875 0  0.21965520498276 0.1015543880164422 0  1.515638456102889 0.2882700110184686 0  0.09048297387599738 0.3637717362208066 0  2.150453692751374 0.2387066338105111 0  1.323782677156475 0.04897634338873398 0  1.409375 0.03715320121951221 0  1.406484531114799 0.1087852750766809 0  1.134375 0.03715320121951218 0  1.627401732573545 0.04552157221025036 0  0.446875 0.3713289093361426 0  2.045405893604797 0.1105340662939892 0  1.255408269734577 0.1577307500159216 0  2.028125 0.03707597992059326 0  0.04420832937638274 0.128125 0  0.5817551710628505 0.3702615006034757 0  0.1197849154434487 0.2663398672460083 0  1.248258025468107 0.2565907092181813 0  0.1300647302703173 0.0508462728378621 0  0.7738123537510222 0.2761231499240648 0  1.203125 0.0366132337404304 0  0.5444207041612499 0.111205399508622 0  0.8016457771828226 0.1964238426015905 0  2.072662025974815 0.2975086504196739 0  0.4019040438866802 0.2103993403217561 0  0.4677372330974851 0.04827477407630658 0  0.8677218578847617 0.1432970430140788 0  1.058011122005847 0.2758866204059919 0  0.4429405887974043 0.2746184809910084 0  0.5843750000000001 0.03726989681835222 0  0.6318596133730142 0.1128692182767254 0  0.4862628454464408 0.2957029785303028 0  0.7805186758662764 0.3673578380827891 0  1.887722846421017 0.1760882698830035 0  0.3498893058880703 0.256189258793856 0  1.472640588990488 0.1118278026240017 0  1.865937103925594 0.2604137786483804 0
[...]
<PointData  Scalars="f_43"> 
<DataArray  type="Float64"  Name="f_43"  format="ascii">4.4258955748427736e-01  4.7307469649389144e-01  1.0704054513959401e-09  8.3155306774616683e-10  -3.4173545745120443e-01  -3.0558243583793820e-01  -3.2845529718454902e-01  -4.9593359577943930e-01  -9.1327218295468660e-01  8.8254578928465122e-01  2.0164692980769052e+00  4.2014140984159065e-01  -1.1383969142950707e+00  -4.8878072659261723e-01  -2.5838712934690733e-01  -2.3517506844195638e-01  -2.7171467738347022e-01  -4.4101638904938290e-01  -1.1225068035802976e-01  -8.9462905194248057e-02  -2.7271045405459327e-01  -1.2009213916900080e-01  -5.1313471351474980e-02  -4.9919223233560039e-01  6.9953396099577091e-03  7.8468983829052996e-01  6.1352484966270392e-03  -1.8342526807796747e-01  -1.7735983375922076e-01  2.0081945954708798e-02  4.0920084546704850e-02  2.6601937021852432e-02  3.3212294890456157e-02  2.8232812086522573e-02  3.4477778726884692e-02  1.7511982422370464e-02  1.8819572554930199e-02  -7.2606003790686213e-02  -6.5025958464344766e-02  3.1712899955791303e-02  2.5475020382587543e-02  3.4698946886115752e-02  2.7954003166022905e-02  2.8239466852266739e-09  -4.6128335769460599e-02  9.1900701213392822e-03  1.0608916401423127e-02  -1.3213760671380970e-01  5.8570162676499565e-03  1.5895849509869015e-09  -1.2930398604606902e-01  2.9784059478540358e-02  2.7445870269465777e-02  3.4238186481459862e-02  2.3773210498631174e-02  3.1330621642450263e-02  -2.1775238909936014e-02  -2.4205587091429663e-02  -1.7387499785226104e-01  3.8981780860917919e-01  3.6735788915773049e-01  -1.5636626339681481e-01  2.8872828550358491e-02  2.5982807940354520e-02  1.6862129046375834e-02  3.3785486722232735e-02  1.7228094224700511e-02  2.7111037302103770e-02  3.4522453327416006e-02  -2.3565468387152855e-01  1.8419960203885772e-02  8.6178607608019316e-03  2.6466559277587738e-02  -1.6504217695242605e-02  -1.2924053885283353e-02  -2.7583803236183191e-01  5.3917753447145012e-01  5.7301305039736505e-01  -1.6835438979229023e-01  -7.8152703362145651e-02  -1.8731292098398858e-01  3.6501061589236669e-03  -1.1841550473713402e-03  1.4268718385115602e-02  3.6644944695055144e-02  2.6007563087125509e-02  2.0351656200768464e-03  -8.8486859263790490e-02  1.4983398428240830e-02  2.6255776049239146e-02  3.1083667274072749e-02  -1.0298347461439613e-09  1.6788306514382401e-02  3.5483988978000265e-02  2.8785201258069680e-02  2.2654877800591163e-02  -3.3455609908406603e-01  -2.0202201027039401e-01  2.5005344230257378e-02  2.0909917517238211e-02  4.8263752002747151e-01  3.0437010050534327e-02  3.1297324793517260e-02  1.7105389227843348e-01  3.7035826596624619e-02  -1.7870202578542699e-01  -1.9428713080411605e-01  5.1160657381346242e-01  1.8387401370240856e-03  5.9743160409596856e-03  3.0598524852057185e-03  2.6244686353150640e-02  2.1754728871511378e-01  2.5426987083810328e-02  -1.8855000487533455e-01  -1.9391971728271218e-01  2.0474903069537451e-02  -2.0219810011022962e-01  2.9472666368894038e-02  -1.2923753131470631e-01  1.1152306345493222e-02  6.0215359767916152e-03  -1.4460994530152516e-01  -4.8046088583292061e-02  -2.0356338338657690e-01  2.3420881867241175e-01  9.1717082389381499e-01  7.3972003874239434e-01  -1.5808056838930362e-01  3.0394316783443991e-02  2.7062108412977508e-02  2.9338222003417132e-02  2.8296044150294516e-02  2.6499951348922478e-02  7.0297667578215423e-03  3.0399683094494531e-02  3.2128786668498950e-02  -1.6723672533944695e-01  3.1298500287260403e-02  3.5642019679366081e-02  -8.0592189866169426e-03  4.3042298673184282e-01  4.5476249248406558e-01  2.6567868519027989e-02  2.4214767340722258e-02  -1.7748237905156214e-02  1.9899998440002710e-02  2.0145959032556397e-02  3.0277931941877514e-02  3.6122104773454296e-02  2.5721219823279098e-02  2.9735351053848378e-03  -9.9478789362595466e-02  -9.7546839961805396e-02  -3.9198422597208349e-02  -1.1782400582355743e-01  -8.7455547729244618e-02  2.1725666484536724e-01  4.5875669941029418e-01  2.1200824500682697e-02  -4.8354774258453333e-03  -1.6096315139393580e-01  2.8710063888611036e-02  1.4290771041228114e-02  1.1262412847901337e-02  -3.1851101196580583e-01  3.1215589874744393e-02  1.0009718676826285e-02  2.8293315725187888e-02  -1.9197047886659641e-01  -2.2015924321140515e-01  -1.3402448575345949e-01  2.3007659120208440e-02  6.0799199125486448e-03  2.7202861874324483e-02  3.1857053273555251e-02  3.7463860116741375e-02  3.9437448822508400e-03  5.1646264161860893e-03  1.3112971683775489e-02  1.6573844287585772e-02  1.8496539514734341e-02  1.0272032992425552e-02  -3.3358892800398381e-02  2.0661534227438841e-02  -3.3360566412627390e-01  -6.5274603023490557e-02  2.9615808901617118e-02  -9.2877447623728026e-03  -9.7727514982228550e-02  3.5334888020279225e-02  -1.4727512454634495e-01  -6.4461529883332550e-02  2.9719317944834463e-02  -1.2538261442206416e-01  -1.5924469773102534e-01  3.4250642098808674e-02  -3.3023941896996256e-01  -3.5035908928166837e-01  5.7409961624527205e-03  3.0952446284754079e-02  3.4705621858388769e-02  2.0379043794507737e-02  -2.6791644955301435e-02  2.9856223944308743e-02  2.9004501421642563e-02  2.7183446309697094e-02  2.1267232901573899e-02  4.8600308828688060e-01  -4.9965900404873795e-02  -1.6952251281127792e-01  2.1172180338280361e-02  -2.8034043610806050e-02  -1.1188854807607382e-01  1.2116497766033440e-02  -2.3744026121924316e-01  2.4964655619554420e-02  -1.1714735837121812e-01  3.4137982530445511e-02  3.7265025824480179e-02  -1.1263712930822396e-01  -2.2702563117749913e-01  2.1237815910773269e-02  2.3760307717241094e-03  -1.8283546068755439e-09  2.5497159936683948e-02  4.6404335752781379e-03  4.7817583528601321e-01  3.3866506193008912e-02  1.1368054818841007e+00  3.3598482150156900e-02  3.0045541427261180e-02  5.0885489985328575e-02  2.7018461499804070e-02  4.8593667174039205e-03  2.4595750237998062e-02  2.6342405519308800e-02  2.8744938613046257e-02  2.6000692876880959e-02  3.0236977657907043e-02  -1.6418844631517771e-02  -5.9758786511244621e-03  1.6683582198233130e-02  1.6485299457743366e-02  2.2919398399459549e-02  2.1123310218315795e-02  2.7864534081492059e-02  -7.7298667265798968e-02  1.5251093419097203e-02  3.0521888097477003e-02  2.7462567628347267e-03  1.0685174310733297e-02  -1.5264854894483320e-02  3.6033166014147390e-02  4.7917686902509304e-01  -4.6311912101883679e-02  3.0463967267789688e-02  9.4047281963835286e-03  2.5032110124022844e-01  3.4173779778685942e-01  -5.5889006957103185e-09  1.1928953019647892e-01  3.5761895810143074e-01  3.5645932145642725e-02  1.1209118041151678e-02  1.5210417827334136e-02  -8.8704911687153026e-02  6.9040883922479124e-01  1.5895849509869015e-09  9.5606420106605652e-10  7.1661702136760808e-01  2.6253956236201602e-02  -1.1973320190178340e-01  3.0803360590434148e-02  4.2177883102353170e-01  2.8197466545010082e-03  2.8771121629254923e-02  2.8039599122958399e-02  2.7609709143951524e-02  1.4309192630035361e-02  3.4565220113835386e-02  -1.7208642337505384e-01  1.1284787336047094e-02  3.1968864857494950e-02  1.2444305973191634e-02  6.5984027256350153e-01  -1.7040388364229533e-01  6.8608765540073935e-01  2.5203068147639188e-02  3.9536975857857731e-01  -5.5158870401369964e-02  2.6405097486359035e-02  -2.5929564404562266e-01  -1.4773509775845695e-04  3.7200695373446726e-03  -3.1281375377105136e-01  -1.8634298746183592e-01  1.2899255133083150e-02  1.9146254717210414e-02  -1.9403001059697392e-01  -1.7416912164956244e-01  -1.9141761940481053e-01  -2.0248095130587079e-01  -8.6698646672948951e-02  1.8289615140848380e-02  -3.3854730334382427e-01  3.1180562599348802e-02  2.5750398693883566e-02  1.7570354010294831e-02  3.2883278381996575e-02  -1.1049687439759921e-01  3.6121725800960645e-02  -1.1405886755531298e-01  -1.5686362856200975e-01  -1.0624298033965861e-01  3.1903995846679398e-02  -2.0558989189074217e-01  -1.7973083998088865e-01  2.9407073536851128e-02  -2.6894023642219433e-01  -2.1932584821274709e-01  3.0277065146375692e-02  8.0392892098356504e-03  2.9944958088946424e-02  -3.7622129176034767e-02  8.1243998721968885e-03  -3.2611610285807091e-01  -3.3762415514398236e-01  3.5351400885839997e-02  -3.4038496853720851e-01  9.2459302153809342e-01  2.9405400826263126e-02  8.5981880966150082e-01  9.4713437918077306e-03  1.3711097996875676e-02  -1.7422620604999269e-02  1.9871420564077026e-03  4.2346659676359855e-03  4.6215533104098944e-03  -9.5493314634081646e-04  3.0351141039786870e-02  2.5907442596570018e-02  -1.3867785180382863e-01  -2.6934546163217232e-01  2.2582551391552217e-02  -6.0240063504734834e-02  8.9868868764753345e-03  3.8074450898333417e-02  3.1593577132078984e-02  3.2239556036051387e-02  3.0256226249756060e-02  -1.8078604918805161e-01  -1.7894132455824602e-01  2.8624699474473894e-02  3.1176438629014633e-02  2.9513185574594761e-02  3.7395105239831743e-03  1.9197651079166256e-03  4.4009604353330861e-01  -2.8245312456122595e-01  -1.8166519214791996e-02  2.4928200257416256e-02  2.2828087369490831e-02  1.8936816170468811e-02  -5.7625582058386277e-02  3.5434817242326777e-02  1.6412966399974881e-02  -3.5651644652064315e-02  2.3658932750697734e-02  2.8189033686564526e-02  3.0244901488388827e-02  3.1361628008777320e-01  2.6439080802601926e-02  -1.8861974672153084e-01  -1.8663225148674958e-01  1.0902451308102143e-03  3.0233765694630810e-01  1.0433539579245043e-02  -5.5114261015842703e-03  2.9343065651448581e-02  -2.2810581998258603e-01  1.5640998598001922e-02  7.1617820223401863e-03  3.1165681156282470e-02  2.4485947873461252e-02  -2.4625547656464364e-01  -1.4391866285165439e-01  2.6628194025904658e-02  1.7459366855349188e-02  1.9834684964936997e-02  2.9839330144463886e-02  2.4078684531220994e-02  3.0483779238427398e-03  4.3476041422965034e-01  2.9064367258249461e-02  -1.3203495345313929e-01  -1.8843551864754118e-01  -1.0897366996448139e-01  1.4505767415067870e-02  -3.1906915419200504e-01  2.2483293740956756e-02  -5.1095717336993529e-02  1.9845321642684696e-02  1.8832860678233150e-02  1.7437676632414918e-02  -1.4462638605889885e-02  3.3709825241102442e-02  2.9388349019758831e-02  3.2433734122086118e-02  3.3564468824078160e-02  4.7039843350807903e-01  4.4294290112265189e-01  7.0980584962132033e-03  2.8241892774916622e-02  -6.1852585862471582e-02  -5.5230869834032532e-02  1.0603355929265226e-02  1.5050779436641995e-02  5.7502094000081971e-01  -2.2309114527589857e-01  7.1147304613562012e-01  -1.5760306798591509e-01  2.3766639495032705e-02  -7.1641471772853293e-02  -1.7058485145963028e-02  -2.3968841485099487e-01  3.2193298010883650e-02  7.8081921821336342e-01  -1.6722306980958279e-01  1.2135090220479901e-02  3.6340170007333632e-02  2.7257159575862672e-01  3.0171869764147381e-02  6.1549569799600101e-01  3.4884632865084191e-02  -1.0794353309729861e-01  2.7478184418770098e-02  3.0489110198775194e-02  2.7174122584300124e-02  2.9881231331804464e-02  2.7522021183557847e-02  2.7811225462586402e-02  1.4728383286762065e-02  3.1505057728115980e-02  2.8149194507723907e-02  -1.7925643912020553e-01  1.5478135514679839e-02  -1.9151045732347247e-01  -1.4800047129322605e-01  2.7991657628427136e-02  3.1259389435487658e-02  5.4731264127246260e-01  2.3984726503307591e-02  2.5514494395549796e-02  2.5170948106225149e-01  4.5394961358911889e-01  -1.3657233302572212e-02  5.1635560239903489e-01  2.5357715161939114e-02  -4.1755757063105574e-02  3.2385746462877063e-02  -1.8809299615175332e-01  2.9842647993941551e-02  2.1761786291788626e-02  -1.6000229500744026e-01  -4.6562245269600698e-02  3.6340400039776197e-03  4.9274714805892751e-03  2.9666729238120318e-02  2.9231318900425794e-03  -2.5448214991975214e-02  3.3524276174078183e-03  2.2717550878675907e-03  3.0966187461208560e-02  3.5680702007356270e-02  -3.2513654108597589e-01  2.7156849172286203e-02  7.6753460917481104e-03  3.7296684400922237e-03  7.2626516860173117e-03  1.4341928639085209e-02  3.5585591875869644e-03  2.4009318663837754e-02  1.9210953193805121e-02  2.1075650346634219e-02  1.4250148191757192e-02  -1.8460729606351195e-01  -1.7888288627285912e-01  1.1568356341336099e-01  -6.7381603369998766e-02  -9.5759980617459217e-02  -1.8109602770600042e-01  -1.5738211962061127e-01  1.3812904908422974e+00  -1.1737240442684703e-02  1.7435377886878956e-01  1.0569932979227342e-02  9.0183471071255180e-03  2.6179231576966860e-02  3.0935939614616752e-02  3.4805621541271051e-02  1.3221326515258992e-02  2.9803838325848920e-02  6.5866318965723701e-03  1.3571269357750758e-02  -3.0819618095875795e-01  -1.8463845398300852e-01  1.9125251822193157e-02  -3.2095451638872169e-01  -2.4931786142424406e-01  2.9255029254274086e-02  -2.7273671543485961e-01  -3.3389688427677278e-01  3.8091437992828346e-02  2.8052126564728632e-02  1.2729390734083612e-02  9.3982248858226810e-03  1.4450196489784739e-02  2.1265237654081077e-02  -2.0863597149826796e-01  7.9654743740760862e-03  1.7497247505083729e-02  2.3948187487244154e-02  2.1201257690547471e-02  2.8568278140787346e-02  3.0883103099049848e-03  8.4738194319826342e-03  2.8716715618101414e-02  3.4266746646087115e-02  3.0270247044637974e-02  1.8223332777829750e-03  2.6157101774027240e-02  -1.1458101625036153e-01  -2.9581980256360028e-02  -3.5707106975432043e-02  3.6270354823867042e-02  1.4509854116923893e-02  1.6717696531631980e-03  -7.7761050896665808e-04  -1.7101266994642148e-01  -1.5232581842971968e-01  -1.2830216326126945e-01  4.0741226079722115e-01  1.2858350848547756e-01  -8.5599641351873326e-02  -1.7534382054107622e-01  -1.7009720082453694e-01  -8.0793643779433835e-02  -3.4336934568563800e-02  -9.8032779032446782e-02  -1.4040181360167076e-01  -1.4440463855815902e-01  2.6020580147723248e-02  3.4798260855955450e-02  1.6000484823545023e-02  2.9742974205252772e-02  1.2497705770998204e-02  1.4989150047083920e-02  -1.4896688489916571e-02  2.9357426072154785e-02  -1.3560826158598149e-01  1.3297582105709737e-02  3.5384510440641538e-02  3.4240030667304952e-02  3.1733526572337155e-02  2.9310714937628962e-02  3.1679452312170807e-02  -7.4864955124546925e-02  -4.4434242442904170e-02  -2.9953579986930734e-01  -3.2068863878934334e-01  -1.3581083681069042e-01  1.2038523596581007e-02  3.5516666105362679e-02  3.1477095269546486e-02  3.4652350973931233e-02  4.1017846331601993e-01  1.1865451314098736e-02  2.8769554548502455e-02  3.3749571187501055e-02  -8.6132609297888491e-02  1.8125192205371100e-02  3.0537658758635111e-01  3.7615823744674065e-02  3.6704231505367932e-02  2.9007019215974403e-02  2.3135955595297179e-02  2.1169076765200107e-02  -1.2152290807790714e-01  2.8444052177725724e-02  -5.0474587034103791e-02  2.0269055339588629e-02  2.6964008906047825e-02  3.2158143029324841e-02  -1.4519593291311206e-01  1.9382501960592567e-02  3.2949278581861162e-02  7.5483364242601958e-01  -1.7526404731996764e-01  1.0706372773961081e-02  3.5400370750843430e-02  -2.4766998529888609e-01  -4.7421236700747972e-02  1.0655268274803790e-02  9.2318810379107795e-03  2.8871050809098495e-02  8.1849112083968911e-01  1.6753501872296569e-02  2.8296147539266278e-02  1.7624032820567893e-02  1.7868038976848726e-02  3.8568093778379164e-01  3.5463892760380072e-03  3.4659872679664616e-01  -2.6450147561278867e-02  5.5300687974200596e-03  -3.3696151230688187e-01  -3.4544420279438903e-01  2.9265063668387912e-02  -3.3731530084209038e-01  -1.8091605877283104e-02  2.8174514513004012e-02  2.7765185012583890e-02  2.6650421859398404e-02  1.6052088019257778e-02  9.7329683268820855e-03  1.8065460462357034e-03  1.0172444028038201e-02  -2.0781760379724783e-02  3.5483780735963012e-02  -1.7809945016213838e-01  3.6065024618179613e-02  3.4143840429973663e-02  2.0765768196443019e-02  -6.3826264324689241e-02  -1.0721353909264833e-01  -8.3990975521500422e-02  -6.2054077560211147e-02  2.7268365238005556e-02  2.7157841517874221e-02  -2.4613179073880814e-01  -1.5239134410051963e-01  -1.7749624251145155e-01  2.5631765330561405e-02  5.9969535988432121e-01  3.3150552547026320e-02  1.2460993565817400e-02  -9.0715982221102651e-02  2.8117544161209620e-02  -2.1836813788046328e-01  2.4243964637358645e-02  -3.2776935266541818e-01  2.2679911512804622e-02  -1.3287266410969870e-01  -1.6231403962756039e-01  -1.9211526297998466e-01  1.7225196463423017e-02  3.2386365580452277e-02  3.5627944780019030e-02  2.7448152327978922e-02  1.3718943138531357e-02  -7.9715962501585191e-02  1.1402139534906186e+00  3.0400760393220459e-02  -9.4670772693457913e-03  -3.0009632399255781e-01  2.7692013735908787e-02  2.0623631199224193e-02  3.1000753641305123e-02  3.1291527097951119e-02  2.9901813876815644e-02  2.7826612419440334e-02  3.9801304437010231e-03  3.3257475665625348e-02  1.3261812174627246e-02  -2.5130563371314807e-02  -3.5547505112998007e-02  4.7347574651193436e-01  4.7173477033580030e-01  3.5008110637863341e-02  -2.5823296986145444e-01  1.8229842315519981e-02  1.3048819880245222e-02  2.9877376198635362e-02  9.1498818263315122e-03  2.3790352247885248e-02  2.9797311097381533e-02  6.2019209548986121e-01  -2.5541340564935327e-02  2.7627941798041653e-02  8.7929376150689853e-02  2.6170925536212886e-01  -1.0468302300433742e-01  1.5109767943181824e-02  3.1374762453685104e-02  -2.3394343126755462e-01  -2.1556115929919892e-01  -3.3068650878322287e-01  3.1033617805428102e-02  2.7093145443383457e-02  -2.5022216441344836e-01  4.5614082083613761e-01  7.6834116891437398e-01  8.5448368491991798e-03  -1.2969152105205428e-01  2.1112472457523426e-02  2.3161794171908310e-02  3.4555774168370489e-02  2.4432421111722183e-02  2.8239466852266739e-09  -1.9046158372990502e-01  2.5796647143751007e-02  3.4881069843188607e-03  -1.9702117688758175e-01  -1.8704798598904632e-01  4.3426026878146855e-03  -1.2504809756064839e-01  4.0700139667305002e-01  3.9186503055875260e-01  2.2738789379951302e-02  3.6104111531030707e-02  3.6100661812243251e-02  3.4535675142650588e-02  3.2638835062219186e-02  2.9563894797788794e-02  2.5150698890476424e-02  -1.6396266828335515e-01  3.6824491751752939e-02  3.7744787096119545e-02  1.0277816009406032e-02  5.2274131409785242e-03  -6.1817667866578357e-02  -2.0575204876864470e-01  2.0471679167068199e-02  -1.0980823233306600e-01  6.0925994343740027e-02  -1.0298347461439613e-09  2.1934646808367202e-02  2.8543196667721104e-02  2.2031227262099811e-02  -1.3474968443714322e-01  2.7888180815659587e-02  7.8153799196355855e-03  1.1171571958951070e-02  1.6085326211369599e-02  4.5265773223803277e-03  -2.6672105345124618e-03  9.7806088026122350e-03  -1.4581068128637700e-03  1.3292665223902786e-03  -1.0154654784432303e-02  3.2296005573132579e-02  2.4262497829764095e-02  -1.7050337423546214e-02  4.1107110412804942e-01  -4.7751368504655783e-03  3.0176596759358555e-02  -4.0154347130322336e-02  2.5663890550342620e-03  3.1389817125152424e-03  1.5467495933657270e-03  -1.9071362205100578e-01  2.4262047145883439e-02  1.1303761697993391e-02  2.1381874204075755e-02  -2.1314092425400571e-01  2.9549285074809365e-02  2.7405573235106066e-02  2.4574628275942347e-02  -1.7661019086382623e-01  -1.8895659854523622e-01  3.5497740174301039e-02  -1.9840978128898312e-01  -2.2945477887980997e-01  -2.2409734640244250e-01  2.9344833938519936e-02  2.4361118803855494e-02  3.1088795808130190e-02  -4.0552001880682031e-01  1.3742991251754773e-02  -1.2096566579288141e-01  3.0598666410072192e-02  3.3748212382463327e-01  -1.1802217824509803e-02  1.3483097912601596e-02  -9.6343833338358983e-02  2.8239466852266739e-09  1.0951392140529379e+00  8.9575182867179026e-01  -6.5729297002675418e-03  -3.7893199321002748e-02  -1.2140842483162918e-01  2.5207749296292124e-02  2.4540503231984784e-02  -1.0985607345491417e-01  1.7673065397445047e-02  -1.6639120978367178e-01  5.3985947481094543e-01  4.8535148600144251e-01  4.8989031448358505e-01  1.7093197479387871e-02  3.3407344120570978e-03  2.9056716630033577e-02  2.5944727884318709e-02  2.4782090569005533e-02  3.2690765987395017e-02  5.4594687266185449e-01  2.7252750783138907e-02  -3.6010244167468680e-01  3.4232528054716480e-02  2.2645160613529860e-02  3.0534627013721342e-02  1.7585660705405345e-02  1.7035146862485896e-02  -1.7830704616398610e-01  2.9978429555493038e-02  -1.8690263552815020e-01  2.4884547713217384e-02  1.2213204910