<?xml version="1.0"?>
<VTKFile type="UnstructuredGrid"  version="0.1"  >
<UnstructuredGrid>
<Piece  NumberOfPoints="2426" NumberOfCells="4534">
<Points>
<DataArray  type="Float64"  NumberOfComponents="3"  format="ascii">0 0.41 0  0 0 0  2.2 0 0  2.2 0.41 0  0.2404508497187474 0.2293892626146237 0  0.25 0.2 0  0.2404508497187474 0.1706107373853764 0  0.2154508497187474 0.1524471741852423 0  0.1845491502812526 0.1524471741852423 0  0.1595491502812526 0.1706107373853764 0  0.15 0.2 0  0.1595491502812526 0.2293892626146237 0  0.1845491502812527 0.2475528258147577 0  0.2154508497187474 0.2475528258147577 0  0.5404508497187474 0.2293892626146237 0  0.55 0.2 0  0.5404508497187474 0.1706107373853764 0  0.5154508497187473 0.1524471741852423 0  0.4845491502812526 0.1524471741852423 0  0.4595491502812526 0.1706107373853764 0  0.45 0.2 0  0.4595491502812526 0.2293892626146237 0  0.4845491502812526 0.2475528258147577 0  0.5154508497187473 0.2475528258147577 0  1.1 0 0  0 0.205 0  1.1 0.41 0  0.55 0 0  0.55 0.41 0  0.275 0 0  0.275 0.41 0  1.65 0.41 0  1.65 0 0  1.375 0 0  1.375 0.41 0  1.925 0 0  1.925 0.41 0  0.8250000000000001 0.41 0  0.8250000000000001 0 0  1.5125 0.205 0  1.7875 0.205 0  0.9625000000000001 0.205 0  1.2375 0.205 0  2.2 0.205 0  0.7560964076246335 0.2151713709677419 0  1.99375 0.2152743902439024 0  2.0625 0 0  0.6875 0 0  2.0625 0.41 0  2.2 0.3075 0  0.6875 0.41 0  1.7875 0.41 0  1.375 0.1486128048780488 0  1.5125 0 0  1.7875 0 0  1.5125 0.41 0  0.9625000000000001 0 0  0.9625000000000001 0.41 0  0.4125 0 0  0.1375 0 0  0.1375 0.41 0  0.4125 0.41 0  1.2375 0 0  1.1 0.1486128048780487 0  1.2375 0.41 0  1.65 0.1486128048780487 0  1.126715909090909 0.2793064024390244 0  1.676715909090909 0.2793064024390244 0  1.348284090909091 0.2793064024390244 0  0.34375 0.3032389320646208 0  1.894702181800738 0.1282910975492754 0  2.092797818199262 0.1282910975492754 0  1.85625 0.3075 0  0.8630851210521902 0.286932093388664 0  0.89375 0.1025 0  0.35 0.1090282786671641 0  0 0.3075 0  0 0.1025 0  0.6526217841291382 0.288229645480046 0  0.7562500000000001 0.09660248895515888 0  0.6568633732316684 0.1557582854763441 0  2.099172119769978 0.25625 0  1.002356446954348 0.1010393851523063 0  1.99375 0.08395950269330846 0  1.459960956013612 0.3075 0  1.569025960719943 0.2986889805672169 0  1.03125 0.3278689922742084 0  0.75625 0.3247156761655783 0  1.959375 0.3126371951219512 0  1.749222215368287 0.1025 0  1.275777784631713 0.1025 0  2.2 0.1025 0  1.225938124459196 0.3075 0  1.550777784631713 0.1025 0  1.44375 0.07430640243902442 0  1.16875 0.07430640243902437 0  0.3528655045338512 0.2063263890916129 0  0.5890337614812103 0.08775733857679162 0  0.8504912436891263 0.190072835691683 0  1.899250267340833 0.2229966846119207 0  0.1020898364287272 0.3140258291809757 0  1.766482954545455 0.2934032012195123 0  1.051658316544432 0.2265720188842194 0  0.2 0.3400647632937836 0  1.421109702350723 0.2261157654379721 0  0.4812500000000001 0.41 0  0.4324401666997539 0.3216425986889796 0  0.098916018031319 0.09171660955420841 0  0.9508742791313441 0.2921736960864468 0  2.13125 0 0  2.118919042110979 0.3422084711244843 0  1.30625 0.41 0  0.20625 0 0  1.597888256393107 0.2173787389261347 0  0.4812500000000001 0 0  0.4324082967851086 0.08384041677422771 0  1.829299675393195 0.07400700849299596 0  0.568219932524165 0.3212274660843853 0  1.71875 0.41 0  0.268005226542646 0.08512186835670006 0  1.16875 0.41 0  2.038220665644273 0.332420740103091 0  0.6678017527842831 0.07701763866051195 0  0.89375 0.41 0  0.5111435174287687 0.07335351331957608 0  0.176193934632343 0.0734896648625108 0  0.07390688010811153 0.1697064032433452 0  0.05452951551825875 0.25625 0  0.61875 0.41 0  1.452769549894695 0.1548122580621249 0  1.369219062229598 0.07430640243902442 0  1.30625 0 0  1.720943423819132 0.1714577452753128 0  1.157188124459196 0.205 0  1.094219062229598 0.07430640243902437 0  1.304056576180868 0.1714577452753128 0  1.67579304192913 0.07430640243902437 0  0.2672907219039591 0.3037570723459566 0  1.209670467133757 0.1362100266964769 0  1.58125 0 0  1.03125 0 0  0.06875000000000001 0.41 0  0 0.35875 0  1.58125 0.41 0  1.631724228912893 0.3381867502687533 0  0.8240147050827157 0.1225233169495944 0  1.825608881788174 0.14499488549201 0  1.85625 0 0  1.44375 0 0  1.44375 0.41 0  1.85625 0.41 0  2.13125 0.41 0  0.7562500000000001 0.41 0  0.7562500000000001 0 0  0.89375 0 0  0.34375 0 0  0.34375 0.41 0  0.20625 0.41 0  0.06875000000000001 0 0  1.16875 0 0  1.03125 0.41 0  0.61875 0 0  1.71875 0 0  1.99375 0 0  1.99375 0.41 0  0.3972301426712326 0.2593842555611471 0  1.340625 0.3489494290853124 0  1.134375 0.3489494290853123 0  1.700180620188976 0.3438659752031281 0  0.5003922072260507 0.341765274319271 0  0.6212513815748759 0.2209216137134851 0  0.6885607720119526 0.215393731583638 0  1.033412357328477 0.1612902025713047 0  2.135782184673599 0.07126652247502523 0  1.668441847249787 0.2129203728327609 0  1.295782514339747 0.2378437748815763 0  1.409375 0.3520314716057996 0  2.129248544730567 0.1906135162504124 0  2.060771381434487 0.1989445750470348 0  2.013252586573865 0.1496169464686054 0  1.942766402200229 0.1734448904596831 0  1.895522487186454 0.06076163953489683 0  2.069553871656643 0.06605731020975725 0  0.9281250000000001 0.3539050257418612 0  1.274680914880868 0.3520219391081363 0  0.3030138498135347 0.2488370856812789 0  0.8223773249563684 0.341761430177996 0  0.9018164060227267 0.2326477848736739 0  0.8143027982392851 0.2440265179987191 0  0.7225087161029304 0.2699907246386231 0  1.614713220494657 0.09473434380863296 0  0.378125 0.3566194660323104 0  0.309375 0.3566194660323104 0  1.72990325744076 0.2380068107952482 0  0.6915936999299305 0.3429472631234433 0  0.6268087624932918 0.3466455500035671 0  1.356580098625191 0.2120393231351682 0  0.3060160055995138 0.1590148921620778 0  0.3954648733249218 0.156380553890791 0  2.034370752044885 0.2668681600792073 0  1.51768709249349 0.3426260931494756 0  1.561883724969884 0.1650446847858835 0  1.197344062229598 0.2523725417393646 0  0.9281250000000001 0.05124999999999999 0  1.804085235518364 0.3468178408964637 0  1.817887819205233 0.2589243285818559 0  0.9107805776841645 0.1653834539923287 0  1.905897727272727 0.3485060975609756 0  0 0.05125 0  0.844212276491354 0.0614201194265309 0  0.378125 0.05244637078450034 0  1.008571329007178 0.2705955969954818 0  0.7724048032149464 0.1559079561351474 0  0.7203054377831548 0.04941826955193545 0  1.192836486056382 0.3562350748565544 0  0.5967108020713719 0.1479294686523888 0  1.28257088594801 0.2944411014911587 0  0.7041890234548132 0.1222025174424443 0  1.474860187679412 0.2504218616229368 0  1.406767003493824 0.2829282258560709 0  0.3201325899091991 0.05890121548989159 0  0.5979220912872258 0.2727591995766724 0  1.845656689180403 0.1998310418452388 0  2.144958525570388 0.2909790873294231 0  2.2 0.15375 0  1.57794966442982 0.3540357145964566 0  0.9483181579620558 0.1214693369582054 0  0.0496154796471391 0.333125 0  1.508991196088596 0.1421783375065625 0  0.09776612425612034 0.2204896805326566 0  1.50436820029908 0.06143401634903343 0  1.223857000523521 0.0823554862453532 0  0.2531953886959507 0.3582003209055908 0  1.153316824384777 0.1289850171317837 0  2.148922302309752 0.1258841779285271 0  1.621993280276081 0.2841214267927899 0  1.550118654119087 0.2461998729100966 0  1.327182649291491 0.1216967252533594 0  1.753125 0.04556020050186112 0  1.271875 0.04556020050186116 0  0.9824282234771738 0.05051969257615314 0  1.039510847866381 0.05683351822678641 0  1.94956388244759 0.1180512551534177 0  1.949997712993411 0.04965831614304109 0  1.771961817615021 0.1530278789497521 0  1.909246823951428 0.2812757146784527 0  1.101974016627944 0.2038045618205013 0  0.7906250000000001 0.0444674049654372 0  1.948575539857022 0.2445328248721197 0  1.697271520964565 0.1233917627620729 0  1.065625 0.3689344961371042 0  1.085849084308977 0.3170853572226867 0  0.9840604787624379 0.3582077516409966 0  1.577403511714593 0.05463601888079143 0  0.05622663515370135 0.05493816910862376 0  0.8762396958822678 0.3392249777398821 0  1.751571320346033 0.3651102912045228 0  1.055327852410105 0.111864799513911 0  0.1583785085108421 0.2994699345738728 0  0.1455283439499995 0.3542795598723423 0  2.2 0.35875 0  0.225705107073232 0.05084786997482401 0  0.1455852234589313 0.1166494778469164 0  1.466879772203159 0.3611261772912453 0  1.990280163552011 0.3564754268533217 0  1.17471064520912 0.2990917256188288 0  0.7221925551074015 0.1739659241003985 0  0 0.25625 0  2.2 0.25625 0  2.2 0.05125 0  0 0.15375 0  1.853978576207987 0.35875 0  0.21965520498276 0.1015543880164422 0  1.515638456102889 0.2882700110184686 0  0.09048297387599738 0.3637717362208066 0  2.150453692751374 0.2387066338105111 0  1.323782677156475 0.04897634338873398 0  1.409375 0.03715320121951221 0  1.406484531114799 0.1087852750766809 0  1.134375 0.03715320121951218 0  1.627401732573545 0.04552157221025036 0  0.446875 0.3713289093361426 0  2.045405893604797 0.1105340662939892 0  1.255408269734577 0.1577307500159216 0  2.028125 0.03707597992059326 0  0.04420832937638274 0.128125 0  0.5817551710628505 0.3702615006034757 0  0.1197849154434487 0.2663398672460083 0  1.248258025468107 0.2565907092181813 0  0.1300647302703173 0.0508462728378621 0  0.7738123537510222 0.2761231499240648 0  1.203125 0.0366132337404304 0  0.5444207041612499 0.111205399508622 0  0.8016457771828226 0.1964238426015905 0  2.072662025974815 0.2975086504196739 0  0.4019040438866802 0.2103993403217561 0  0.4677372330974851 0.04827477407630658 0  0.8677218578847617 0.1432970430140788 0  1.058011122005847 0.2758866204059919 0  0.4429405887974043 0.2746184809910084 0  0.5843750000000001 0.03726989681835222 0  0.6318596133730142 0.1128692182767254 0  0.4862628454464408 0.2957029785303028 0  0.7805186758662764 0.3673578380827891 0  1.887722846421017 0.1760882698830035 0  0.3498893058880703 0.256189258793856 0  1.472640588990488 0.1118278026240017 0  1.865937103925594 0.2604137786483804 0
[...]
<PointData  Scalars="f_43"> 
<DataArray  type="Float64"  Name="f_43"  format="ascii">4.4290925758082345e-01  4.7335138056133724e-01  1.1599080033780027e-09  5.5082653313183474e-10  -3.4143063964965864e-01  -3.0528830047347305e-01  -3.2817215859814303e-01  -4.9566285747715189e-01  -9.1301383678102466e-01  8.8282948844951392e-01  2.0167664362667792e+00  4.2045316800514143e-01  -1.1380719467864304e+00  -4.8846506144164131e-01  -2.5709217999800071e-01  -2.3489021089306891e-01  -2.7257395000403584e-01  -4.4202564139040412e-01  -1.1222940390215817e-01  -8.9149635857633108e-02  -2.7242427048544343e-01  -1.1976048501519550e-01  -5.1007512549574606e-02  -4.9756944103430822e-01  1.0636369416122789e-02  7.8498810170140454e-01  2.9765899510166868e-03  -1.8342477536891108e-01  -1.7682648833951062e-01  2.0289611056436559e-02  4.1313051195386710e-02  3.0786008033985179e-02  3.1754251004303347e-02  2.8381670597841711e-02  3.5284187052499721e-02  1.8874768210966723e-02  1.5935166496722056e-02  -7.2289592151716459e-02  -6.4718431515877084e-02  2.9594518765799046e-02  2.5010683415294659e-02  3.4927176076747952e-02  3.0122693741894864e-02  1.1440252607125803e-09  -4.7510768694799171e-02  7.8034806337239073e-03  1.1640992461281040e-02  -1.3092005010649227e-01  7.2607262694732340e-03  9.1509152752881031e-10  -1.2986871857194771e-01  3.0063759749170658e-02  2.8537676391256712e-02  3.6955180495677219e-02  2.3620671559300369e-02  2.7597187474583586e-02  -2.3844063905818003e-02  -2.1781793438139622e-02  -1.7383721345131473e-01  3.9008331547966213e-01  3.6768874382076350e-01  -1.5581736463697771e-01  2.6555192028052309e-02  2.9467140320809514e-02  1.9932693037993575e-02  3.1910871828668724e-02  1.4999618528163004e-02  3.2094432737680756e-02  3.6411935107911401e-02  -2.3516855817325086e-01  2.0329847649697787e-02  9.3378961979196044e-03  2.4337244461932288e-02  -1.2750618653542149e-02  -1.5884345017420552e-02  -2.7573843252972491e-01  5.3949249160974055e-01  5.7329449125683596e-01  -1.7012285976820457e-01  -7.6469876237436146e-02  -1.8418482427354294e-01  6.8506778300725059e-03  -9.2967380358754297e-04  1.5430062500943784e-02  3.1751381967973148e-02  2.4971164645863471e-02  1.0690580274273160e-03  -8.9544404300336292e-02  1.1210936583044864e-02  2.4028098531470036e-02  2.7041302766895998e-02  -6.4863894228627570e-10  1.9729432358717686e-02  3.7234169461062470e-02  3.2861407976650013e-02  2.4905416755958341e-02  -3.3423239814156674e-01  -2.0183421927109932e-01  2.3652165385033813e-02  1.7684815122250890e-02  4.8295546425332603e-01  3.2100380349212636e-02  2.6961459491116641e-02  1.7139614147438167e-01  3.4442445808416877e-02  -1.7808661512468990e-01  -1.9365740722013375e-01  5.1188440359506360e-01  3.9463480485283477e-03  6.0546513940010777e-03  5.4407565792045321e-03  3.0593288466102438e-02  2.1779113667687744e-01  2.7756506457698053e-02  -1.8860618011692643e-01  -1.9394549008509143e-01  2.1847134156086467e-02  -2.0164551732723296e-01  3.2960788418731700e-02  -1.2900345738938737e-01  9.9108485664793963e-03  7.0916208844479193e-03  -1.4313833713359728e-01  -4.5613569188660795e-02  -2.0373851330985215e-01  2.3447076936000361e-01  9.1746179334078737e-01  7.4002788088508109e-01  -1.5794780112802775e-01  3.4064291817958406e-02  2.6473073644103146e-02  2.6360350584531685e-02  2.5139695823820109e-02  2.6719824449844460e-02  1.1623316143924279e-02  2.7120554102446057e-02  2.9928288617024956e-02  -1.6688472327908668e-01  2.9178391960304105e-02  3.5907434176142776e-02  -6.6886048887204305e-03  4.3074394497968471e-01  4.5508145213950113e-01  2.7015626052938016e-02  2.8638956836922247e-02  -1.9909370763303125e-02  2.1628384932669182e-02  2.1462189009090256e-02  3.3436376542132440e-02  3.2593862249287682e-02  2.3603477578739377e-02  4.4284976129716309e-03  -1.0036752112272655e-01  -9.5912517882990003e-02  -4.1282203000781267e-02  -1.1768350170336016e-01  -8.6996327218774747e-02  2.1761037733450175e-01  4.5903188462739397e-01  2.2767055098450156e-02  -5.5645791568581246e-03  -1.6052549071940986e-01  2.7017590338930773e-02  1.5563336860881453e-02  1.0039156880409534e-02  -3.1770857849964068e-01  3.5153109371152347e-02  6.2762540261497206e-03  3.3462184896819833e-02  -1.9129353266831192e-01  -2.1992273699519838e-01  -1.3599065833487645e-01  2.7174093888716500e-02  5.8583038515049798e-03  3.0841240743131909e-02  3.5984769372773971e-02  3.5718474342611183e-02  5.1259156213390132e-03  7.9249690988099624e-03  1.4060425614412479e-02  1.6786839967629075e-02  2.0211554311347118e-02  1.1532861339144870e-02  -2.9919524662230114e-02  2.5958326777744168e-02  -3.3329696118065122e-01  -6.4964219861241360e-02  3.4143386664942481e-02  -5.6022047362776356e-03  -1.0075601819687018e-01  3.4786764228837287e-02  -1.4676158667990977e-01  -6.4043325072458940e-02  3.2492195918337595e-02  -1.2627830403861931e-01  -1.5928040307538224e-01  3.4477731708475332e-02  -3.2995801429511917e-01  -3.5047366619103493e-01  7.4558712040192071e-03  2.6096558277593766e-02  3.5990829982212258e-02  2.4256757465523852e-02  -2.9888415258139813e-02  2.9375144389359346e-02  2.8570120684641317e-02  2.3582381306978602e-02  1.7826530545057090e-02  4.8628055160215977e-01  -5.0430241732799426e-02  -1.6943501773693023e-01  1.8742347311156263e-02  -2.7134938194047650e-02  -1.1016343943860583e-01  1.2090303431294842e-02  -2.3792406927944371e-01  3.0026172234074416e-02  -1.1367958850008300e-01  2.8668066635514602e-02  3.5256426376693989e-02  -1.1246432681549637e-01  -2.2652798417561315e-01  2.2069707021581536e-02  4.3445486546547273e-03  -4.3012802744772776e-10  2.5427570962989351e-02  3.1365531675570479e-03  4.7849323335808308e-01  3.6665175387987650e-02  1.1371076275332630e+00  3.7179031349795000e-02  2.8092567649840756e-02  5.1256308852445594e-02  2.8281883070548536e-02  4.3579056313527865e-03  2.8344019400880695e-02  2.5101471760310107e-02  2.6276198485915076e-02  2.4621561447602133e-02  2.6377595152315789e-02  -1.8174025045945126e-02  -4.0034322669363336e-03  1.7715184813418997e-02  1.7662676873409219e-02  2.2106581730846984e-02  1.7055826448945568e-02  2.7135433468401093e-02  -7.5855203978696550e-02  1.0485493795576893e-02  2.7798447497581320e-02  1.4628866482634605e-04  6.8717366578709615e-03  -1.3145085236814763e-02  3.6454408323281388e-02  4.7945423686744604e-01  -4.3920171334731938e-02  3.2651934829549062e-02  1.2734861348941764e-02  2.5064484492764266e-01  3.4206713356410035e-01  -4.7566117494458439e-09  1.1953127295798438e-01  3.5789280569216159e-01  3.0755391058183368e-02  9.4918306664364890e-03  1.4614001290798749e-02  -8.4651645413215695e-02  6.9071649426082138e-01  9.1509152752881031e-10  7.6594470835292669e-10  7.1690581320896096e-01  2.4067310999036955e-02  -1.1947383067266679e-01  2.6425978801891740e-02  4.2210019869016607e-01  4.6859960810099830e-03  2.5568525517642764e-02  3.0222833748325333e-02  2.9692394650872523e-02  1.7943757520820280e-02  3.3451014737938323e-02  -1.7148861260563311e-01  1.2784899597436237e-02  2.8162443138491682e-02  1.3789275611983154e-02  6.6012498039085887e-01  -1.6997272957558759e-01  6.8640095472865381e-01  3.0398944478323420e-02  3.9563929520702051e-01  -5.4898484156511107e-02  2.6002908159840299e-02  -2.5979922021250829e-01  1.7489546816005982e-04  6.5716008409009733e-03  -3.1233668173226853e-01  -1.8640334026267477e-01  8.3783957668409591e-03  1.5414233959842524e-02  -1.9336907210552373e-01  -1.7405225954486048e-01  -1.8988678732428552e-01  -2.0175849435143123e-01  -8.7556573885339675e-02  1.9861063572415068e-02  -3.3807728136560772e-01  3.5101466575696870e-02  2.2737834256825924e-02  1.9565798759730982e-02  3.1897769662621034e-02  -1.1016521196966858e-01  3.7329320500594933e-02  -1.1490213221979666e-01  -1.5631090349332788e-01  -1.0728289346943209e-01  3.1670821931378393e-02  -2.0564492263674447e-01  -1.7986142375164507e-01  3.3102452390194520e-02  -2.6776290438258471e-01  -2.1873019582080100e-01  3.1686431594948439e-02  8.5123739740667458e-03  3.0737780042710709e-02  -3.5410107055973902e-02  8.4157339976424477e-03  -3.2581512565246873e-01  -3.3734385881193557e-01  3.5387151526382728e-02  -3.4021124361308713e-01  9.2487768974380102e-01  2.8964091261920608e-02  8.6011783881987514e-01  8.2539805524050446e-03  1.9546284217077770e-02  -1.4024710409845443e-02  2.9859679306257453e-03  6.0073060582197411e-03  6.6978086744548214e-03  1.6229857592790217e-04  2.9914482709403296e-02  2.8647387467563051e-02  -1.3895599293662386e-01  -2.6939969510783213e-01  2.2265978278529591e-02  -5.8815964101025908e-02  7.6567291239465650e-03  3.6893692171780013e-02  3.1302151259417085e-02  3.5626129667058380e-02  3.1676786477212615e-02  -1.8018184152320657e-01  -1.7892557752639088e-01  2.6629731759763606e-02  2.9383234222545820e-02  2.7452886401159882e-02  3.5131313906768373e-03  2.8697022974748438e-03  4.4041582383163291e-01  -2.8222795038587695e-01  -1.7957281746375457e-02  3.0012990524875729e-02  2.2912891679280276e-02  2.1114553049623428e-02  -5.6983952416130003e-02  3.6960274895619184e-02  1.3413534827519320e-02  -3.7956912883176930e-02  1.9637290515838547e-02  2.7119333865965982e-02  3.3685874650112177e-02  3.1387231875678456e-01  3.1402053913188351e-02  -1.8867971422911869e-01  -1.8669908362715046e-01  4.6823243990253647e-03  3.0267817976916972e-01  1.1476913902167579e-02  -5.7294235548089175e-03  2.8487445544212581e-02  -2.2730295892735972e-01  1.8764112196812240e-02  8.1347090700446736e-03  3.5059760267263970e-02  2.6931463875666081e-02  -2.4483910841204856e-01  -1.4779481062353469e-01  3.0057976704319853e-02  2.1411899914046729e-02  2.0516277289305905e-02  3.1726846691869384e-02  2.3236653903843222e-02  2.1675221066192736e-03  4.3503219909153668e-01  3.3956554428692547e-02  -1.3084815276527537e-01  -1.8843383207069156e-01  -1.1053793208416070e-01  1.5749585123138145e-02  -3.1876393430850547e-01  1.9698642842182389e-02  -5.2041712948159020e-02  2.1406270640925689e-02  2.0316552127551363e-02  1.8750390592689226e-02  -1.7193337151257260e-02  3.7063768916167431e-02  2.6739022941445780e-02  3.0651438516672021e-02  3.1906957630642788e-02  4.7067507637353923e-01  4.4326226812800840e-01  7.7832619855332371e-03  3.1326464977645886e-02  -6.0755999138014646e-02  -5.5052287827938425e-02  7.4469420584698052e-03  1.8073095232311806e-02  5.7533476754721591e-01  -2.2264543867291886e-01  7.1175694908920462e-01  -1.5719837365082026e-01  2.2928793453943518e-02  -6.8997635039016084e-02  -1.3977440509262650e-02  -2.3956878371736365e-01  3.4641217084473673e-02  7.8110994654686472e-01  -1.6695773985979648e-01  1.3650900745970800e-02  3.2061677442135700e-02  2.7291242922640147e-01  2.5712481684534418e-02  6.1580728477663149e-01  3.7187884539246326e-02  -1.0581744770764936e-01  2.6728022697571546e-02  3.1442542334469505e-02  2.4575180041939128e-02  2.6405429768237045e-02  2.7259010852599047e-02  2.6893721687915543e-02  1.8662970126184852e-02  2.8340199687654246e-02  2.6647570254824351e-02  -1.7835761861287289e-01  1.6406920064241489e-02  -1.9330860221479707e-01  -1.4721257299684382e-01  2.8072098945381499e-02  2.8131946150486604e-02  5.4759283237972001e-01  2.5970528720786357e-02  3.1382875063411093e-02  2.5196200682777053e-01  4.5422479735340632e-01  -1.2601050222688533e-02  5.1663465268172415e-01  2.8927970834828707e-02  -4.1709308895871176e-02  3.3311757214965862e-02  -1.8817985457735717e-01  2.6443415020793198e-02  2.2510556787965281e-02  -1.5693905086503479e-01  -4.3940519454861257e-02  7.4124141787530783e-03  7.0403378486410340e-03  2.5563856289595378e-02  6.0183303534329510e-03  -2.7402726189773640e-02  6.2898152940592793e-03  2.7381178187666738e-03  3.2167214014119525e-02  3.7628046352712295e-02  -3.2483779412837144e-01  2.9451040918942014e-02  3.7137804810332430e-03  3.0595430325696137e-03  7.5281491283593774e-03  1.1267710355505611e-02  5.5452315757465237e-03  2.6862580355264530e-02  2.1299636397818549e-02  2.1744585587327902e-02  1.4600584282609914e-02  -1.8396642705605029e-01  -1.7825356617016438e-01  1.1591232899065240e-01  -6.7444281686336330e-02  -9.3959426654214709e-02  -1.8049142942343571e-01  -1.5683314771697218e-01  1.3815845116198426e+00  -1.1535973383185676e-02  1.7470941160355175e-01  8.4881217369709525e-03  6.2814018918367388e-03  3.1031814317557610e-02  3.3883687913536832e-02  3.5948493506250151e-02  9.8643452440418927e-03  3.1799396969588785e-02  6.2138019875831764e-03  1.4573878963879032e-02  -3.0820318118300405e-01  -1.8465303078686288e-01  2.1279838779606153e-02  -3.2066178445569937e-01  -2.4968845230769487e-01  2.6734515271075822e-02  -2.7198483560128051e-01  -3.3333327932799561e-01  3.6241139149121825e-02  3.2400177453303133e-02  1.2420361535261642e-02  1.0315131498520818e-02  1.0999125021252531e-02  2.5522255361178650e-02  -2.0879047906878362e-01  4.5622160562068959e-03  1.3993486491038910e-02  2.2097422525117864e-02  2.3077247416673233e-02  2.6817283548498067e-02  2.9694214669074635e-03  9.0187101941638526e-03  3.0745685420420631e-02  2.9901008855256383e-02  3.2191323745247802e-02  -5.4574550273331758e-04  2.5033112346823698e-02  -1.1302806491514636e-01  -3.2093833065171398e-02  -3.2876287242122930e-02  3.4600735995920007e-02  1.7680120325100725e-02  2.4368648661543760e-03  2.2402011364517178e-03  -1.7042145552610652e-01  -1.5223317914982346e-01  -1.2779736528524918e-01  4.0773692189359212e-01  1.2895352457560780e-01  -8.6096105774299256e-02  -1.7519449944356896e-01  -1.6970699841330758e-01  -7.9587397432203860e-02  -3.3912735534144471e-02  -9.7573638360332254e-02  -1.3994254634527206e-01  -1.4460330240621838e-01  2.5517215249081026e-02  3.4073703565026578e-02  1.7268140775339620e-02  2.6487336160448047e-02  1.3750623045080833e-02  1.2664624766765695e-02  -1.5415388684261453e-02  3.3187262277063520e-02  -1.3720346428304631e-01  1.4479545244871240e-02  3.7649027635779930e-02  3.4468191338454995e-02  3.2687814079074388e-02  3.2834593586500198e-02  3.1944324429930587e-02  -7.4972971211439712e-02  -4.2617734444046103e-02  -2.9890250678585017e-01  -3.2029492766276402e-01  -1.3090171141339432e-01  1.4835542864411563e-02  3.7578155156417971e-02  3.5073702753777893e-02  3.1915616350242926e-02  4.1045114999216520e-01  9.8843684176486112e-03  2.4878070859459141e-02  2.8082792499921880e-02  -8.7367379704170745e-02  1.9589942374775640e-02  3.0569448728760834e-01  3.3475612210539872e-02  3.3974372378938945e-02  3.3104125063150636e-02  1.9796724995760007e-02  2.5355242096705460e-02  -1.2223395736603589e-01  3.0040352857724831e-02  -5.0089821065048896e-02  2.1606388931381070e-02  3.1912080102454901e-02  3.2866304053232931e-02  -1.4582116801353961e-01  1.5315870768741281e-02  2.8474849636549393e-02  7.5513675399720903e-01  -1.7454040673552867e-01  1.5558405103435825e-02  3.5135430903708180e-02  -2.4695602974460618e-01  -4.8557321498521884e-02  1.1802996003168387e-02  1.0384770040496255e-02  2.8438588106578407e-02  8.1879964639270286e-01  2.0963699680076057e-02  2.9543437801743264e-02  1.5736887739975596e-02  1.9340010320282111e-02  3.8600759470451940e-01  6.4868925980868337e-03  3.4686062707005633e-01  -2.3554203128460651e-02  6.7552025602249108e-03  -3.3696633580391322e-01  -3.4530537776240061e-01  2.8842090206995033e-02  -3.3697547407671397e-01  -2.1227726258216985e-02  2.6622041417214835e-02  3.2982054473088683e-02  2.5428981771646663e-02  1.7068653442443866e-02  6.2364720751065675e-03  2.9482426588876396e-03  1.2662606808058439e-02  -2.0281130994154697e-02  3.6577570684813640e-02  -1.7752938118712816e-01  3.6546145172097727e-02  3.2646987992140733e-02  1.7725920261328350e-02  -6.3320752641280315e-02  -1.1150948038129854e-01  -8.5233034610323874e-02  -6.4121929200779859e-02  2.8208910154586632e-02  2.6158957877718676e-02  -2.4711667025066100e-01  -1.5232005619087996e-01  -1.7719308962570351e-01  2.7075293045922308e-02  5.9997487131676119e-01  3.4046869918208815e-02  1.2856243962126012e-02  -9.0553369880531726e-02  2.5662053332817219e-02  -2.1830696187313905e-01  2.1696412229198700e-02  -3.2755979384170292e-01  2.5648234069936465e-02  -1.3275244576707712e-01  -1.6224524320295139e-01  -1.9208809567748103e-01  1.3503213286783415e-02  3.0339520222793591e-02  3.6560746667453778e-02  2.7387139499333132e-02  1.4222011137799822e-02  -7.8022323606781005e-02  1.1405216451423255e+00  3.2731358237566233e-02  -4.7734522721138610e-03  -2.9904400221506838e-01  3.2499262542951296e-02  2.4439635346207682e-02  3.0692994951121336e-02  3.5640440252356589e-02  3.0374430064905873e-02  2.6488912970828629e-02  7.0437131211663799e-03  3.6513219412521877e-02  1.1195417795004209e-02  -2.7733498999391031e-02  -3.7960781117961952e-02  4.7375248794244629e-01  4.7201162163851834e-01  3.6889813603989012e-02  -2.5787730996034247e-01  2.0165425497608396e-02  1.3083836204879682e-02  2.5308970341446354e-02  8.0556931856938623e-03  2.9555684093216551e-02  2.5431088193922587e-02  6.2050570487172185e-01  -2.4396297836957643e-02  2.4799109245222082e-02  8.8260604647386803e-02  2.6204104514498217e-01  -1.0435890216064296e-01  1.6061481187161438e-02  3.4448496433621238e-02  -2.3424501398613959e-01  -2.1420249370877842e-01  -3.3041312292943809e-01  2.7228660507852467e-02  2.5449947922972081e-02  -2.5108299295860831e-01  4.5641619858052651e-01  7.6864521843580258e-01  9.2053712720222974e-03  -1.2687412929380759e-01  2.2152084520445668e-02  2.8292184573712072e-02  3.3548192290800888e-02  2.1315293123637856e-02  1.1440252607125803e-09  -1.8980520964216779e-01  3.0714453108943562e-02  2.9963482733202118e-03  -1.9635078591515018e-01  -1.8820327492617764e-01  7.2086560354609709e-03  -1.2336102006364980e-01  4.0732400717375472e-01  3.9218727528703007e-01  1.8134659620217292e-02  3.5283196214264990e-02  3.1624016998548769e-02  2.9592789508311235e-02  2.7685246258032876e-02  3.2885428451098687e-02  2.2449782760144504e-02  -1.6383623264666106e-01  3.6514381281270082e-02  3.4092642971878792e-02  7.5776731615843102e-03  2.3978814642837813e-03  -6.1111976931698446e-02  -2.0558449689685501e-01  2.0377117834921049e-02  -1.0960130136733590e-01  6.1146337330040934e-02  -6.4863894228627570e-10  2.6403483689710482e-02  3.3237622869961604e-02  2.6761202386177355e-02  -1.3234024059753341e-01  2.5711939628003146e-02  1.2145642517561136e-02  6.8667035824499963e-03  1.3934536558921998e-02  4.3925946487018645e-03  -5.3054466691445489e-03  9.1030641619845951e-03  3.6571421994465933e-04  4.8663025647214938e-03  -1.0379835400232969e-02  3.5705717759984434e-02  2.9100293400451924e-02  -1.3785737024752521e-02  4.1134046130435470e-01  -2.5272406237750052e-03  3.1320292768222215e-02  -4.0842797139042313e-02  4.7211158759058033e-03  5.5560011370415644e-03  2.3864579347345426e-03  -1.9083222043423126e-01  2.1644071897308579e-02  8.9078429763818339e-03  2.3611991104847754e-02  -2.1269575318138623e-01  2.6006376871957775e-02  2.5865748655836296e-02  2.3953841554464554e-02  -1.7634067668053127e-01  -1.8892948153305875e-01  3.5762208086008808e-02  -1.9929109251446736e-01  -2.2880651996013462e-01  -2.2346208034892381e-01  2.9021797483170124e-02  2.6335182605893161e-02  2.9683695324398424e-02  -4.0525005528719299e-01  1.5789766420276789e-02  -1.1953006585784695e-01  2.6103729339299747e-02  3.3781589697683534e-01  -1.3446821956909450e-02  1.7848508472606845e-02  -9.4432352065911593e-02  1.1440252607125803e-09  1.0954350434803151e+00  8.9605522296136275e-01  -5.8337866056188473e-03  -3.4903841345163313e-02  -1.2390519549606928e-01  2.4689566581127823e-02  2.7016393072073656e-02  -1.1100826984820779e-01  1.9194105343387734e-02  -1.6687263658709836e-01  5.4017428018936109e-01  4.8566888835034921e-01  4.9020736453078262e-01  1.8227383862058921e-02  7.1741172231064472e-03  2.5560722390259378e-02  2.5676345354794898e-02  2.5759165032689740e-02  3.6324163116026924e-02  5.4622562880012160e-01  2.7320570210578158e-02  -3.5978456002902398e-01  3.4155562082864771e-02  2.2953321079620427e-02  3.1233204271641345e-02  1.8966025340245402e-02  1.8349839198613695e-02  -1.7779367536418633e-01  3.3674300199309837e-02  -1.8633138167465207e-01  2.3299560349673547e-02  1.2039317099196