<?xml version="1.0"?>
<VTKFile type="UnstructuredGrid"  version="0.1"  >
<UnstructuredGrid>
<Piece  NumberOfPoints="2426" NumberOfCells="4534">
<Points>
<DataArray  type="Float64"  NumberOfComponents="3"  format="ascii">0 0.41 0  0 0 0  2.2 0 0  2.2 0.41 0  0.2404508497187474 0.2293892626146237 0  0.25 0.2 0  0.2404508497187474 0.1706107373853764 0  0.2154508497187474 0.1524471741852423 0  0.1845491502812526 0.1524471741852423 0  0.1595491502812526 0.1706107373853764 0  0.15 0.2 0  0.1595491502812526 0.2293892626146237 0  0.1845491502812527 0.2475528258147577 0  0.2154508497187474 0.2475528258147577 0  0.5404508497187474 0.2293892626146237 0  0.55 0.2 0  0.5404508497187474 0.1706107373853764 0  0.5154508497187473 0.1524471741852423 0  0.4845491502812526 0.1524471741852423 0  0.4595491502812526 0.1706107373853764 0  0.45 0.2 0  0.4595491502812526 0.2293892626146237 0  0.4845491502812526 0.2475528258147577 0  0.5154508497187473 0.2475528258147577 0  1.1 0 0  0 0.205 0  1.1 0.41 0  0.55 0 0  0.55 0.41 0  0.275 0 0  0.275 0.41 0  1.65 0.41 0  1.65 0 0  1.375 0 0  1.375 0.41 0  1.925 0 0  1.925 0.41 0  0.8250000000000001 0.41 0  0.8250000000000001 0 0  1.5125 0.205 0  1.7875 0.205 0  0.9625000000000001 0.205 0  1.2375 0.205 0  2.2 0.205 0  0.7560964076246335 0.2151713709677419 0  1.99375 0.2152743902439024 0  2.0625 0 0  0.6875 0 0  2.0625 0.41 0  2.2 0.3075 0  0.6875 0.41 0  1.7875 0.41 0  1.375 0.1486128048780488 0  1.5125 0 0  1.7875 0 0  1.5125 0.41 0  0.9625000000000001 0 0  0.9625000000000001 0.41 0  0.4125 0 0  0.1375 0 0  0.1375 0.41 0  0.4125 0.41 0  1.2375 0 0  1.1 0.1486128048780487 0  1.2375 0.41 0  1.65 0.1486128048780487 0  1.126715909090909 0.2793064024390244 0  1.676715909090909 0.2793064024390244 0  1.348284090909091 0.2793064024390244 0  0.34375 0.3032389320646208 0  1.894702181800738 0.1282910975492754 0  2.092797818199262 0.1282910975492754 0  1.85625 0.3075 0  0.8630851210521902 0.286932093388664 0  0.89375 0.1025 0  0.35 0.1090282786671641 0  0 0.3075 0  0 0.1025 0  0.6526217841291382 0.288229645480046 0  0.7562500000000001 0.09660248895515888 0  0.6568633732316684 0.1557582854763441 0  2.099172119769978 0.25625 0  1.002356446954348 0.1010393851523063 0  1.99375 0.08395950269330846 0  1.459960956013612 0.3075 0  1.569025960719943 0.2986889805672169 0  1.03125 0.3278689922742084 0  0.75625 0.3247156761655783 0  1.959375 0.3126371951219512 0  1.749222215368287 0.1025 0  1.275777784631713 0.1025 0  2.2 0.1025 0  1.225938124459196 0.3075 0  1.550777784631713 0.1025 0  1.44375 0.07430640243902442 0  1.16875 0.07430640243902437 0  0.3528655045338512 0.2063263890916129 0  0.5890337614812103 0.08775733857679162 0  0.8504912436891263 0.190072835691683 0  1.899250267340833 0.2229966846119207 0  0.1020898364287272 0.3140258291809757 0  1.766482954545455 0.2934032012195123 0  1.051658316544432 0.2265720188842194 0  0.2 0.3400647632937836 0  1.421109702350723 0.2261157654379721 0  0.4812500000000001 0.41 0  0.4324401666997539 0.3216425986889796 0  0.098916018031319 0.09171660955420841 0  0.9508742791313441 0.2921736960864468 0  2.13125 0 0  2.118919042110979 0.3422084711244843 0  1.30625 0.41 0  0.20625 0 0  1.597888256393107 0.2173787389261347 0  0.4812500000000001 0 0  0.4324082967851086 0.08384041677422771 0  1.829299675393195 0.07400700849299596 0  0.568219932524165 0.3212274660843853 0  1.71875 0.41 0  0.268005226542646 0.08512186835670006 0  1.16875 0.41 0  2.038220665644273 0.332420740103091 0  0.6678017527842831 0.07701763866051195 0  0.89375 0.41 0  0.5111435174287687 0.07335351331957608 0  0.176193934632343 0.0734896648625108 0  0.07390688010811153 0.1697064032433452 0  0.05452951551825875 0.25625 0  0.61875 0.41 0  1.452769549894695 0.1548122580621249 0  1.369219062229598 0.07430640243902442 0  1.30625 0 0  1.720943423819132 0.1714577452753128 0  1.157188124459196 0.205 0  1.094219062229598 0.07430640243902437 0  1.304056576180868 0.1714577452753128 0  1.67579304192913 0.07430640243902437 0  0.2672907219039591 0.3037570723459566 0  1.209670467133757 0.1362100266964769 0  1.58125 0 0  1.03125 0 0  0.06875000000000001 0.41 0  0 0.35875 0  1.58125 0.41 0  1.631724228912893 0.3381867502687533 0  0.8240147050827157 0.1225233169495944 0  1.825608881788174 0.14499488549201 0  1.85625 0 0  1.44375 0 0  1.44375 0.41 0  1.85625 0.41 0  2.13125 0.41 0  0.7562500000000001 0.41 0  0.7562500000000001 0 0  0.89375 0 0  0.34375 0 0  0.34375 0.41 0  0.20625 0.41 0  0.06875000000000001 0 0  1.16875 0 0  1.03125 0.41 0  0.61875 0 0  1.71875 0 0  1.99375 0 0  1.99375 0.41 0  0.3972301426712326 0.2593842555611471 0  1.340625 0.3489494290853124 0  1.134375 0.3489494290853123 0  1.700180620188976 0.3438659752031281 0  0.5003922072260507 0.341765274319271 0  0.6212513815748759 0.2209216137134851 0  0.6885607720119526 0.215393731583638 0  1.033412357328477 0.1612902025713047 0  2.135782184673599 0.07126652247502523 0  1.668441847249787 0.2129203728327609 0  1.295782514339747 0.2378437748815763 0  1.409375 0.3520314716057996 0  2.129248544730567 0.1906135162504124 0  2.060771381434487 0.1989445750470348 0  2.013252586573865 0.1496169464686054 0  1.942766402200229 0.1734448904596831 0  1.895522487186454 0.06076163953489683 0  2.069553871656643 0.06605731020975725 0  0.9281250000000001 0.3539050257418612 0  1.274680914880868 0.3520219391081363 0  0.3030138498135347 0.2488370856812789 0  0.8223773249563684 0.341761430177996 0  0.9018164060227267 0.2326477848736739 0  0.8143027982392851 0.2440265179987191 0  0.7225087161029304 0.2699907246386231 0  1.614713220494657 0.09473434380863296 0  0.378125 0.3566194660323104 0  0.309375 0.3566194660323104 0  1.72990325744076 0.2380068107952482 0  0.6915936999299305 0.3429472631234433 0  0.6268087624932918 0.3466455500035671 0  1.356580098625191 0.2120393231351682 0  0.3060160055995138 0.1590148921620778 0  0.3954648733249218 0.156380553890791 0  2.034370752044885 0.2668681600792073 0  1.51768709249349 0.3426260931494756 0  1.561883724969884 0.1650446847858835 0  1.197344062229598 0.2523725417393646 0  0.9281250000000001 0.05124999999999999 0  1.804085235518364 0.3468178408964637 0  1.817887819205233 0.2589243285818559 0  0.9107805776841645 0.1653834539923287 0  1.905897727272727 0.3485060975609756 0  0 0.05125 0  0.844212276491354 0.0614201194265309 0  0.378125 0.05244637078450034 0  1.008571329007178 0.2705955969954818 0  0.7724048032149464 0.1559079561351474 0  0.7203054377831548 0.04941826955193545 0  1.192836486056382 0.3562350748565544 0  0.5967108020713719 0.1479294686523888 0  1.28257088594801 0.2944411014911587 0  0.7041890234548132 0.1222025174424443 0  1.474860187679412 0.2504218616229368 0  1.406767003493824 0.2829282258560709 0  0.3201325899091991 0.05890121548989159 0  0.5979220912872258 0.2727591995766724 0  1.845656689180403 0.1998310418452388 0  2.144958525570388 0.2909790873294231 0  2.2 0.15375 0  1.57794966442982 0.3540357145964566 0  0.9483181579620558 0.1214693369582054 0  0.0496154796471391 0.333125 0  1.508991196088596 0.1421783375065625 0  0.09776612425612034 0.2204896805326566 0  1.50436820029908 0.06143401634903343 0  1.223857000523521 0.0823554862453532 0  0.2531953886959507 0.3582003209055908 0  1.153316824384777 0.1289850171317837 0  2.148922302309752 0.1258841779285271 0  1.621993280276081 0.2841214267927899 0  1.550118654119087 0.2461998729100966 0  1.327182649291491 0.1216967252533594 0  1.753125 0.04556020050186112 0  1.271875 0.04556020050186116 0  0.9824282234771738 0.05051969257615314 0  1.039510847866381 0.05683351822678641 0  1.94956388244759 0.1180512551534177 0  1.949997712993411 0.04965831614304109 0  1.771961817615021 0.1530278789497521 0  1.909246823951428 0.2812757146784527 0  1.101974016627944 0.2038045618205013 0  0.7906250000000001 0.0444674049654372 0  1.948575539857022 0.2445328248721197 0  1.697271520964565 0.1233917627620729 0  1.065625 0.3689344961371042 0  1.085849084308977 0.3170853572226867 0  0.9840604787624379 0.3582077516409966 0  1.577403511714593 0.05463601888079143 0  0.05622663515370135 0.05493816910862376 0  0.8762396958822678 0.3392249777398821 0  1.751571320346033 0.3651102912045228 0  1.055327852410105 0.111864799513911 0  0.1583785085108421 0.2994699345738728 0  0.1455283439499995 0.3542795598723423 0  2.2 0.35875 0  0.225705107073232 0.05084786997482401 0  0.1455852234589313 0.1166494778469164 0  1.466879772203159 0.3611261772912453 0  1.990280163552011 0.3564754268533217 0  1.17471064520912 0.2990917256188288 0  0.7221925551074015 0.1739659241003985 0  0 0.25625 0  2.2 0.25625 0  2.2 0.05125 0  0 0.15375 0  1.853978576207987 0.35875 0  0.21965520498276 0.1015543880164422 0  1.515638456102889 0.2882700110184686 0  0.09048297387599738 0.3637717362208066 0  2.150453692751374 0.2387066338105111 0  1.323782677156475 0.04897634338873398 0  1.409375 0.03715320121951221 0  1.406484531114799 0.1087852750766809 0  1.134375 0.03715320121951218 0  1.627401732573545 0.04552157221025036 0  0.446875 0.3713289093361426 0  2.045405893604797 0.1105340662939892 0  1.255408269734577 0.1577307500159216 0  2.028125 0.03707597992059326 0  0.04420832937638274 0.128125 0  0.5817551710628505 0.3702615006034757 0  0.1197849154434487 0.2663398672460083 0  1.248258025468107 0.2565907092181813 0  0.1300647302703173 0.0508462728378621 0  0.7738123537510222 0.2761231499240648 0  1.203125 0.0366132337404304 0  0.5444207041612499 0.111205399508622 0  0.8016457771828226 0.1964238426015905 0  2.072662025974815 0.2975086504196739 0  0.4019040438866802 0.2103993403217561 0  0.4677372330974851 0.04827477407630658 0  0.8677218578847617 0.1432970430140788 0  1.058011122005847 0.2758866204059919 0  0.4429405887974043 0.2746184809910084 0  0.5843750000000001 0.03726989681835222 0  0.6318596133730142 0.1128692182767254 0  0.4862628454464408 0.2957029785303028 0  0.7805186758662764 0.3673578380827891 0  1.887722846421017 0.1760882698830035 0  0.3498893058880703 0.256189258793856 0  1.472640588990488 0.1118278026240017 0  1.865937103925594 0.2604137786483804 0
[...]
<PointData  Scalars="f_43"> 
<DataArray  type="Float64"  Name="f_43"  format="ascii">4.4203660351341795e-01  4.7243085966781390e-01  1.2058678228728197e-09  9.1587244527678507e-10  -3.4223620327003723e-01  -3.0618690529374870e-01  -3.2915742736667691e-01  -4.9664988135738158e-01  -9.1401968668534594e-01  8.8186514439566099e-01  2.0158672659744434e+00  4.1963433751028795e-01  -1.1388376520024779e+00  -4.8925847447721754e-01  -2.5872102329043845e-01  -2.3568648862733771e-01  -2.7239253234461874e-01  -4.4120504369028385e-01  -1.1189940120021502e-01  -8.9428808552075495e-02  -2.7339357205005288e-01  -1.2142975051878092e-01  -5.2809537186066791e-02  -5.0009548067665044e-01  1.0013240894957314e-02  7.8409284774470422e-01  1.9497215873095872e-03  -1.8346769265107468e-01  -1.7849872828453620e-01  1.9393671025038833e-02  4.0409248638742269e-02  2.9506628366885654e-02  3.0577757218760677e-02  2.8743624586874912e-02  3.3369145325763905e-02  1.8294349539299901e-02  1.6582150854697515e-02  -7.1854431984240102e-02  -6.7120445695401126e-02  3.0729364804845394e-02  2.5324563637814618e-02  3.3731921013501712e-02  2.9374760564853601e-02  1.8337988030162087e-09  -4.6838477865256710e-02  1.1160605579220044e-02  1.0178302168504096e-02  -1.3138847006054458e-01  8.6531195432861877e-03  1.0099662178906986e-09  -1.3110528247965211e-01  2.7586248411889454e-02  2.8912578900172514e-02  3.5049832880860894e-02  2.4116000123483410e-02  2.8672518819350519e-02  -2.3916538331978199e-02  -2.3359681839489579e-02  -1.7441646170467281e-01  3.8916157255799305e-01  3.6681694045081992e-01  -1.5700808450014309e-01  2.5253754869874055e-02  2.7589702012963749e-02  1.9743240078240305e-02  3.0779597050196353e-02  1.5333225049138151e-02  2.9912405724297590e-02  3.4134298527712166e-02  -2.3601433146998738e-01  1.9705245995697535e-02  7.8915436072727069e-03  2.2572932157579498e-02  -1.3063978794014375e-02  -1.7137915735401917e-02  -2.7671507476550539e-01  5.3861724196351690e-01  5.7237732534953989e-01  -1.7156444040957686e-01  -7.8762722500998389e-02  -1.8367819983151193e-01  6.9297334976559672e-03  -1.2768424216935974e-04  1.4474831412894230e-02  3.1655807417379465e-02  2.6617491054037046e-02  -1.4386651509180168e-03  -8.9422700395725377e-02  1.3279175722926185e-02  2.4936129012926148e-02  2.6696629296797166e-02  -1.1192205083996890e-09  1.9923342909040121e-02  3.4919024369128117e-02  3.2155555587560371e-02  2.2723902814807646e-02  -3.3508090556265963e-01  -2.0157099286337621e-01  2.2311955047443509e-02  1.8438194421992422e-02  4.8208529888031321e-01  2.9134976568170455e-02  2.6374632785417632e-02  1.7052978334930977e-01  3.3737397835810409e-02  -1.7954548967307501e-01  -1.9512237125846979e-01  5.1096211507273881e-01  1.9042872424042355e-03  5.2232772564606905e-03  5.8389895493064893e-03  2.9005782187480129e-02  2.1687111489213368e-01  2.8391828508836491e-02  -1.8888939703500623e-01  -1.9426027881217348e-01  2.2209431080250714e-02  -2.0348183481267768e-01  3.0302241404699486e-02  -1.2996029939836354e-01  1.0114203523415008e-02  9.2669240086401036e-03  -1.4348934762946536e-01  -4.5677928683326104e-02  -2.0372843766860071e-01  2.3354107616105912e-01  9.1655443175117979e-01  7.3914737998587288e-01  -1.5961451393503820e-01  3.2760723796206953e-02  2.7352318019141685e-02  2.6411976458263375e-02  2.6321250765992611e-02  2.6689472637995117e-02  1.1217971583050153e-02  2.7960217571327720e-02  2.9088562184771165e-02  -1.6769327158972985e-01  2.7962194890940619e-02  3.3906463509553335e-02  -6.0842800276379580e-03  4.2987146552162880e-01  4.5420853039401216e-01  2.7739543972819098e-02  2.8128697311338130e-02  -2.2415804573266012e-02  2.1860552611478894e-02  2.1457086492111779e-02  3.2655954826199436e-02  3.2085743685839233e-02  2.2328561495010241e-02  4.8995451285542540e-03  -1.0069319537857500e-01  -9.7428302425750235e-02  -4.3087342945062966e-02  -1.1848164227939249e-01  -8.7994548075019621e-02  2.1673476610576264e-01  4.5811120798513993e-01  2.0968543698062204e-02  -7.7239289398189663e-03  -1.6056698117467888e-01  2.7041311227563161e-02  1.4443043148120942e-02  1.1968281990681546e-02  -3.1896509388647154e-01  3.2800382144977790e-02  6.1622103736949218e-03  3.0664238508352037e-02  -1.9291900563573519e-01  -2.2190713205431159e-01  -1.3694816430827550e-01  2.6781915437923645e-02  4.8725615586205050e-03  2.9532688010232476e-02  3.3590317308687251e-02  3.4001057058937731e-02  4.8872076096179648e-03  8.8882675760334033e-03  1.3415411985225348e-02  1.7071552804640986e-02  1.9783123974433957e-02  9.8002948436916211e-03  -3.0696940239055746e-02  2.5058926266328416e-02  -3.3391336582044617e-01  -6.4269097017173094e-02  3.1887697361424980e-02  -4.2633711203569962e-03  -9.9750902548102385e-02  3.2737706952608546e-02  -1.4785003315329173e-01  -6.4961706167346644e-02  2.9974465562010756e-02  -1.2740653391763651e-01  -1.6097362961754930e-01  3.3393083022833794e-02  -3.3111365316542812e-01  -3.5112766990692845e-01  9.3605804491284379e-03  2.7701365097804308e-02  3.4163837285326730e-02  2.4163101783952302e-02  -3.0878653961241398e-02  2.6853843873103699e-02  2.5937776732152550e-02  2.4236664317598910e-02  1.7837876709566089e-02  4.8536036186855419e-01  -5.3121310695982527e-02  -1.7014394404606137e-01  1.6796571873220912e-02  -3.1147099954384871e-02  -1.1108451933807542e-01  1.2695981148212332e-02  -2.3685089930338585e-01  2.8574379222416259e-02  -1.1562645318670613e-01  3.0146536654605757e-02  3.3909187265712702e-02  -1.1334627722772628e-01  -2.2881745829183134e-01  2.2064139892848021e-02  4.2240744946099211e-03  -1.2789700426631385e-09  2.6690043023115100e-02  3.6117426991816967e-03  4.7762012015131783e-01  3.4603444891399764e-02  1.1362217543057169e+00  3.5159967165371175e-02  2.6230204914811820e-02  5.0376708193342876e-02  2.6433088359374888e-02  3.6160319992538438e-03  2.8057229909923528e-02  2.7178765415944335e-02  2.7010433583011004e-02  2.5204398585040901e-02  2.5740233317783513e-02  -1.7621922923392305e-02  -3.1331150538308353e-03  1.7032602637009092e-02  1.6946503525280741e-02  2.3403261268178311e-02  1.7486650479382995e-02  2.6871543546215064e-02  -7.8033889211706300e-02  1.3547829303772988e-02  2.7765595749144164e-02  -1.7944045220322309e-03  5.5462026955866448e-03  -1.5305085630776920e-02  3.4263258592102989e-02  4.7853377543351078e-01  -4.3543222274010071e-02  2.9740716555186151e-02  1.2710268128911057e-02  2.4978950438459949e-01  3.4119707620583772e-01  -5.3536816635787436e-09  1.1860743947980341e-01  3.5695650191529193e-01  3.0886723309875422e-02  1.1746318450367905e-02  1.5181478838258489e-02  -8.7017304274960433e-02  6.8983397457142059e-01  1.0099662178906986e-09  9.9654190113301259e-10  7.1599712877250399e-01  2.2543924408784458e-02  -1.2042755519069157e-01  2.8139250586821214e-02  4.2122817248301803e-01  4.2788738857846998e-03  2.6081072572377580e-02  3.0251254407607498e-02  2.9786850889717959e-02  1.6529130997433011e-02  3.1789074802510676e-02  -1.7282530918703928e-01  1.1344880406652363e-02  2.8154480965961796e-02  1.2370494869285556e-02  6.5921033719447741e-01  -1.7170848740870540e-01  6.8553590256707908e-01  2.8917462560172601e-02  3.9471647127039861e-01  -5.3360293680070073e-02  2.4065618281146652e-02  -2.5942503570847775e-01  -1.1516623870580435e-03  7.8181343247318708e-03  -3.1339239353081488e-01  -1.8670132495938108e-01  7.6219951681368624e-03  1.4548065060399521e-02  -1.9531394908621275e-01  -1.7402236819454475e-01  -1.8959017582409371e-01  -2.0363081941670816e-01  -8.7457750408465623e-02  1.9702867537734026e-02  -3.3860628455114489e-01  3.3616935035409239e-02  2.1558795770929669e-02  2.0238272785833893e-02  3.2026570081757640e-02  -1.1100060007513203e-01  3.4850192520715535e-02  -1.1571830715889012e-01  -1.5632441191549112e-01  -1.0796228416790382e-01  3.0798901549759401e-02  -2.0563784857384051e-01  -1.7974877754596105e-01  3.0211753546974845e-02  -2.6976244766354734e-01  -2.1990969092073365e-01  2.8798825086188733e-02  7.2050005096815284e-03  3.0818941190055956e-02  -3.4663533252383451e-02  1.0259386924727264e-02  -3.2667599914230339e-01  -3.3837530560758944e-01  3.3283889466921325e-02  -3.4141011158972873e-01  9.2395504121728178e-01  2.6390208760075078e-02  8.5922415253655426e-01  1.1094245233939704e-02  1.8887017846188469e-02  -1.4861615273459142e-02  3.0777880298843482e-03  6.8917630404058501e-03  7.9342891879304149e-03  -2.1513091952056287e-03  2.7048459073890068e-02  2.8450604518305792e-02  -1.4047160414788992e-01  -2.6994240946604692e-01  2.3179759477503590e-02  -5.8449909920641946e-02  1.0425682924662096e-02  3.5074201170470345e-02  3.0044978911081509e-02  3.4203000552760959e-02  3.0803005076698784e-02  -1.8185059095743461e-01  -1.7944652260825708e-01  2.7810426895292329e-02  2.8803804809891198e-02  2.7345364111383431e-02  3.0717158040652064e-03  3.0854597040894834e-03  4.3954318222203836e-01  -2.8335361897998845e-01  -1.8859050260773891e-02  2.8924726055501962e-02  2.3524983237616804e-02  2.0838875968684591e-02  -5.9547503080787656e-02  3.4873277814622246e-02  1.4715892084968376e-02  -4.0120960566449551e-02  2.0315249644446996e-02  2.5142908090270633e-02  3.0534150330776264e-02  3.1295010797341261e-01  2.9685179003980336e-02  -1.8882839568400722e-01  -1.8672984629733130e-01  4.7347248144660112e-03  3.0180599040189793e-01  1.0477785447613169e-02  -8.1309012705958663e-03  2.9767685468873470e-02  -2.2914153096488352e-01  1.8813558519954556e-02  7.4194774162241253e-03  3.3773149238364629e-02  2.7556072733325332e-02  -2.4678439943640451e-01  -1.4847225427471353e-01  2.8931777834729638e-02  1.9876917266294994e-02  2.1401646392854592e-02  2.9984526350052658e-02  2.4472608765327857e-02  2.2447531350962566e-03  4.3411113827256087e-01  3.1779946624948818e-02  -1.3121335008331109e-01  -1.9027281331325985e-01  -1.1077074353618818e-01  1.4695136290392178e-02  -3.1953917184636310e-01  1.9363514453542140e-02  -5.4376506100115414e-02  2.1382021756392543e-02  1.9991661269346452e-02  1.8137953278572361e-02  -1.7148213326288006e-02  3.4982220951088001e-02  2.6874772863510043e-02  2.9674805668893658e-02  3.0562421543791247e-02  4.6975455083638418e-01  4.4238957918935967e-01  9.6681996800631279e-03  3.0815601636324779e-02  -6.0173783269768209e-02  -5.5911166895746246e-02  4.6580315803501056e-03  1.5699013428539670e-02  5.7446063603001929e-01  -2.2203353465421444e-01  7.1083922120005116e-01  -1.5802938618101184e-01  2.3876254277706978e-02  -7.2347055055556123e-02  -1.5698141542156353e-02  -2.4004412971533540e-01  3.3450558994245545e-02  7.8020347288275482e-01  -1.6791466523503049e-01  1.2162428130043196e-02  3.2102618843423053e-02  2.7204053508349252e-01  2.8066476575379674e-02  6.1492949064299995e-01  3.5102258180995834e-02  -1.0723846519051404e-01  2.6976669792678099e-02  3.0645348759088416e-02  2.5536037577447903e-02  2.6954962764438317e-02  2.7914909369581149e-02  2.7512615846101356e-02  1.7826556567984906e-02  2.8506382758187624e-02  2.7650024944231903e-02  -1.7871573518041312e-01  1.5833854034473127e-02  -1.9560507921669243e-01  -1.4739742440595194e-01  2.6064371710482995e-02  2.7380584925937184e-02  5.4667355624297009e-01  2.6813011303248119e-02  2.9481411398269451e-02  2.5103930716002409e-01  4.5330342272630153e-01  -1.4682730428067536e-02  5.1571534995879775e-01  2.8454445261828051e-02  -4.4878951289959036e-02  3.2303505382632332e-02  -1.8835256726790670e-01  2.7796242532433953e-02  2.2820437035577418e-02  -1.5748774829586476e-01  -4.3911935405033457e-02  8.2465399165066247e-03  9.3486209799955883e-03  2.6028858901577821e-02  6.2917638008718598e-03  -2.9649043416405275e-02  6.0600359773650770e-03  2.7074372873160651e-03  2.9186982812682245e-02  3.5311899292005712e-02  -3.2563064059854940e-01  2.9689344631055454e-02  2.5563473852561703e-03  2.5882061050899732e-03  6.0895046749911896e-03  1.4022938159695414e-02  6.2444532492307832e-03  2.6779617510413176e-02  2.1028199275533999e-02  2.2683017728922922e-02  1.3743032300332305e-02  -1.8547711271740042e-01  -1.7973051080900093e-01  1.1500024286427482e-01  -6.6842865760476017e-02  -9.5453225710177503e-02  -1.8207198802856903e-01  -1.5802312432384005e-01  1.3806805752470415e+00  -1.0779572513817372e-02  1.7383327917254607e-01  8.7339257511589805e-03  5.9809493983157876e-03  2.9330369642750608e-02  3.1922845347750604e-02  3.3796153835454583e-02  1.0080976368876171e-02  3.1432849859580198e-02  5.3690280208986184e-03  1.4783221495871707e-02  -3.0875093169448037e-01  -1.8509317098030659e-01  2.1095000694432011e-02  -3.2163429633437768e-01  -2.4939033149823520e-01  2.5330436788727984e-02  -2.7371400987456557e-01  -3.3419995335897207e-01  3.4422218166423393e-02  3.0244679583362560e-02  1.3702693437578340e-02  1.1429844916232036e-02  1.3278484792841617e-02  2.4648524246554324e-02  -2.0866086239570755e-01  3.8960111620503298e-03  1.3750251642840239e-02  2.3081379838624974e-02  2.1163475418269365e-02  2.7242505667041908e-02  2.6162735527527816e-03  7.7700894586095765e-03  3.0646886878216848e-02  3.0323263880630568e-02  2.9439742230858199e-02  -2.3158731142733737e-03  2.5460442405470574e-02  -1.1398094669129794e-01  -3.3061033945338561e-02  -3.3709546597632707e-02  3.3248759567772672e-02  1.6331507733002858e-02  2.6255094630575860e-03  2.3962076010893567e-03  -1.7174556476348307e-01  -1.5293931640823180e-01  -1.2888556221229619e-01  4.0686477360187234e-01  1.2806863518070366e-01  -8.5944330305979824e-02  -1.7519374649103034e-01  -1.7141724630608790e-01  -8.1638845025580192e-02  -3.4856133026198138e-02  -9.8564814331381187e-02  -1.4088741205323452e-01  -1.4612295705685899e-01  2.3762374603819816e-02  3.2387295357678807e-02  1.6419520604994336e-02  2.5889384442869812e-02  1.2379139109798277e-02  1.4125315839443171e-02  -1.4903418949826708e-02  3.0418601450846142e-02  -1.3809676299705456e-01  1.3486233866671150e-02  3.4757173417263781e-02  3.3596112080528220e-02  3.1731063679332171e-02  3.1981614657395518e-02  3.0070956354070946e-02  -7.4506126199066353e-02  -4.2098276384421748e-02  -2.9983501373129573e-01  -3.2086065101957689e-01  -1.3223794681712234e-01  1.4947008419107089e-02  3.5046900402731757e-02  3.2813554203252236e-02  2.9633251217565475e-02  4.0952486483044920e-01  1.0517826507033905e-02  2.6847590108256620e-02  2.9190126813358447e-02  -8.7791126276206791e-02  1.9134413291855615e-02  3.0485220166804450e-01  3.2683542038732395e-02  3.2908942700034950e-02  3.0442523626223753e-02  1.9139936157195350e-02  2.4280548169022229e-02  -1.2338162770384624e-01  2.9024927853063584e-02  -5.0961541458011524e-02  2.1977985027221841e-02  2.9871456312692987e-02  3.1958929876690953e-02  -1.4725816965786551e-01  1.6079033520263943e-02  2.9305525141874220e-02  7.5424836352341695e-01  -1.7444344659978531e-01  1.3902831449400228e-02  3.3208952356422114e-02  -2.4849310684149178e-01  -5.0992317678919159e-02  1.0254525112058309e-02  8.5911906692396692e-03  2.9136384953210460e-02  8.1792324723451437e-01  2.0903130472631710e-02  2.8957452611976457e-02  1.6963567939613285e-02  1.8823394727138648e-02  3.8513576921220743e-01  7.4146929613095533e-03  3.4593832120087037e-01  -2.4967279493637490e-02  8.9577070854574697e-03  -3.3797508134850329e-01  -3.4618329161430833e-01  2.6513140663546448e-02  -3.3759973618648942e-01  -2.2115184182930063e-02  2.4480692847417392e-02  3.0315445482220257e-02  2.3804419900077405e-02  1.6368371699311147e-02  6.2886668138508609e-03  2.6981137331158196e-03  1.2881230089077624e-02  -1.8587614559898786e-02  3.4288218699330048e-02  -1.7876132472545880e-01  3.4246575690340661e-02  3.1078256951424767e-02  1.7843091504303771e-02  -6.5827298349776159e-02  -1.1109335521037775e-01  -8.4468008559747620e-02  -6.2020606408642952e-02  2.8714849437422436e-02  2.7315985909330372e-02  -2.4668315308715424e-01  -1.5398896730321424e-01  -1.7897349350025518e-01  2.7589520644162951e-02  5.9904942820802054e-01  3.3240229173384400e-02  1.1951305181795841e-02  -9.1388076528790996e-02  2.6549391661929652e-02  -2.1905091362406551e-01  2.0803881478521032e-02  -3.2883313514611962e-01  2.4003270651337869e-02  -1.3351180028670348e-01  -1.6289605934366796e-01  -1.9264518806843151e-01  1.4831749519091039e-02  2.9497275364743440e-02  3.4461199025033210e-02  2.5927175820230783e-02  1.4921046706474277e-02  -8.0097985448604900e-02  1.1396543113542388e+00  2.9775931186637180e-02  -4.5285428848646173e-03  -3.0109863572012202e-01  3.0943318858577519e-02  2.3964224134406058e-02  2.9975772929162384e-02  3.4139526463365558e-02  2.7556850087825185e-02  2.4305219312956806e-02  7.2028849542348904e-03  3.4756651630166849e-02  1.2994515363250858e-02  -2.8259439934979886e-02  -3.9702763363839086e-02  4.7283197005178235e-01  4.7109110724135744e-01  3.4692150238247690e-02  -2.5859233453240327e-01  1.9595336687732230e-02  1.0767542582312269e-02  2.4056789205369050e-02  5.8212067953724994e-03  2.8103973846933816e-02  2.4709381653213458e-02  6.1963438097962709e-01  -2.6720941128241027e-02  2.6608740169993154e-02  8.7408970926751081e-02  2.6117564907453478e-01  -1.0518899598914130e-01  1.5319180264865121e-02  3.2347131790078747e-02  -2.3373256280811688e-01  -2.1312917404192741e-01  -3.3150251270706715e-01  2.6161799777442134e-02  2.3752881667532082e-02  -2.5068513962663613e-01  4.5549540444236830e-01  7.6775864949908379e-01  7.6307550338588735e-03  -1.2778266465666674e-01  2.2491012608956067e-02  2.7507517305790433e-02  3.1867415584974662e-02  2.0406807703753506e-02  1.8337988030162087e-09  -1.9154782450367203e-01  2.9255236724965383e-02  2.6323864334851189e-03  -1.9807251271892057e-01  -1.9017053393253394e-01  8.2752253459999429e-03  -1.2404886891868010e-01  4.0645348374134455e-01  3.9132086577613701e-01  1.8545565718984660e-02  3.4173296292094618e-02  3.2081063044565199e-02  3.0406817874790631e-02  2.9628939421733908e-02  3.2235983504309229e-02  2.1165385136538414e-02  -1.6465161803943729e-01  3.4560373757189053e-02  3.3456111668696879e-02  5.7397734166486645e-03  2.9865657081796278e-04  -6.3721734928814708e-02  -2.0654895338910742e-01  2.0367412709224292e-02  -1.1053112461360085e-01  6.0240342130768711e-02  -1.1192205083996890e-09  2.5588206273980302e-02  3.1188186308651059e-02  2.5708563681301443e-02  -1.3327761930021320e-01  2.6122193886208282e-02  1.1465668230753472e-02  6.2844410086623599e-03  1.4848772242809087e-02  4.9889614572119472e-03  -5.5779700634976418e-03  1.1122277111971056e-02  1.2092687127215991e-03  5.3080285379544468e-03  -9.3718398720596795e-03  3.3935011313587032e-02  2.8346645431328782e-02  -1.5030309453008914e-02  4.1041898464009474e-01  -2.0167727202277629e-03  2.8637031821272078e-02  -4.3390365462601291e-02  4.7873828292392820e-03  5.3281383983809893e-03  2.3771508425509936e-03  -1.9093458163880087e-01  2.1080655414173415e-02  1.1526801953033400e-02  2.4193408039237259e-02  -2.1213441441277336e-01  2.5982840729123872e-02  2.6136555487602558e-02  2.4509354130081162e-02  -1.7624123410508766e-01  -1.8882139680860865e-01  3.3594799491355729e-02  -2.0141672898767457e-01  -2.3138248317741419e-01  -2.2543200841749214e-01  2.7339656959662652e-02  2.4326909879404033e-02  3.0040521102483515e-02  -4.0623577646235437e-01  1.6336533827957040e-02  -1.2020669118328768e-01  2.5881785269781542e-02  3.3694407835815554e-01  -1.6954959045452495e-02  1.6500897870239378e-02  -9.5955897079438066e-02  1.8337988030162087e-09  1.0945361132045419e+00  8.9516949951734359e-01  -8.3819837007761480e-03  -3.5512212106155683e-02  -1.2399823785330297e-01  2.6277537849350014e-02  2.7402233353824756e-02  -1.1168685255324412e-01  1.8538526093067633e-02  -1.6851715464073314e-01  5.3929960648115671e-01  4.8479523176959127e-01  4.8933498009385057e-01  1.7627767149205466e-02  7.3418608735733902e-03  2.8040866015783102e-02  2.7158207509938359e-02  2.7250559438713795e-02  3.3773226914485033e-02  5.4528069616396213e-01  2.5081783392195356e-02  -3.6058642421616471e-01  3.2477101586657238e-02  2.3401958675289127e-02  2.8475986556156813e-02  1.8399602852543391e-02  1.7703045181868458e-02  -1.7882521459076400e-01  3.0627510845628883e-02  -1.8807925897816763e-01  2.4326444181596903e-02  1.237303291