<?xml version="1.0"?>
<VTKFile type="UnstructuredGrid"  version="0.1"  >
<UnstructuredGrid>
<Piece  NumberOfPoints="2426" NumberOfCells="4534">
<Points>
<DataArray  type="Float64"  NumberOfComponents="3"  format="ascii">0 0.41 0  0 0 0  2.2 0 0  2.2 0.41 0  0.2404508497187474 0.2293892626146237 0  0.25 0.2 0  0.2404508497187474 0.1706107373853764 0  0.2154508497187474 0.1524471741852423 0  0.1845491502812526 0.1524471741852423 0  0.1595491502812526 0.1706107373853764 0  0.15 0.2 0  0.1595491502812526 0.2293892626146237 0  0.1845491502812527 0.2475528258147577 0  0.2154508497187474 0.2475528258147577 0  0.5404508497187474 0.2293892626146237 0  0.55 0.2 0  0.5404508497187474 0.1706107373853764 0  0.5154508497187473 0.1524471741852423 0  0.4845491502812526 0.1524471741852423 0  0.4595491502812526 0.1706107373853764 0  0.45 0.2 0  0.4595491502812526 0.2293892626146237 0  0.4845491502812526 0.2475528258147577 0  0.5154508497187473 0.2475528258147577 0  1.1 0 0  0 0.205 0  1.1 0.41 0  0.55 0 0  0.55 0.41 0  0.275 0 0  0.275 0.41 0  1.65 0.41 0  1.65 0 0  1.375 0 0  1.375 0.41 0  1.925 0 0  1.925 0.41 0  0.8250000000000001 0.41 0  0.8250000000000001 0 0  1.5125 0.205 0  1.7875 0.205 0  0.9625000000000001 0.205 0  1.2375 0.205 0  2.2 0.205 0  0.7560964076246335 0.2151713709677419 0  1.99375 0.2152743902439024 0  2.0625 0 0  0.6875 0 0  2.0625 0.41 0  2.2 0.3075 0  0.6875 0.41 0  1.7875 0.41 0  1.375 0.1486128048780488 0  1.5125 0 0  1.7875 0 0  1.5125 0.41 0  0.9625000000000001 0 0  0.9625000000000001 0.41 0  0.4125 0 0  0.1375 0 0  0.1375 0.41 0  0.4125 0.41 0  1.2375 0 0  1.1 0.1486128048780487 0  1.2375 0.41 0  1.65 0.1486128048780487 0  1.126715909090909 0.2793064024390244 0  1.676715909090909 0.2793064024390244 0  1.348284090909091 0.2793064024390244 0  0.34375 0.3032389320646208 0  1.894702181800738 0.1282910975492754 0  2.092797818199262 0.1282910975492754 0  1.85625 0.3075 0  0.8630851210521902 0.286932093388664 0  0.89375 0.1025 0  0.35 0.1090282786671641 0  0 0.3075 0  0 0.1025 0  0.6526217841291382 0.288229645480046 0  0.7562500000000001 0.09660248895515888 0  0.6568633732316684 0.1557582854763441 0  2.099172119769978 0.25625 0  1.002356446954348 0.1010393851523063 0  1.99375 0.08395950269330846 0  1.459960956013612 0.3075 0  1.569025960719943 0.2986889805672169 0  1.03125 0.3278689922742084 0  0.75625 0.3247156761655783 0  1.959375 0.3126371951219512 0  1.749222215368287 0.1025 0  1.275777784631713 0.1025 0  2.2 0.1025 0  1.225938124459196 0.3075 0  1.550777784631713 0.1025 0  1.44375 0.07430640243902442 0  1.16875 0.07430640243902437 0  0.3528655045338512 0.2063263890916129 0  0.5890337614812103 0.08775733857679162 0  0.8504912436891263 0.190072835691683 0  1.899250267340833 0.2229966846119207 0  0.1020898364287272 0.3140258291809757 0  1.766482954545455 0.2934032012195123 0  1.051658316544432 0.2265720188842194 0  0.2 0.3400647632937836 0  1.421109702350723 0.2261157654379721 0  0.4812500000000001 0.41 0  0.4324401666997539 0.3216425986889796 0  0.098916018031319 0.09171660955420841 0  0.9508742791313441 0.2921736960864468 0  2.13125 0 0  2.118919042110979 0.3422084711244843 0  1.30625 0.41 0  0.20625 0 0  1.597888256393107 0.2173787389261347 0  0.4812500000000001 0 0  0.4324082967851086 0.08384041677422771 0  1.829299675393195 0.07400700849299596 0  0.568219932524165 0.3212274660843853 0  1.71875 0.41 0  0.268005226542646 0.08512186835670006 0  1.16875 0.41 0  2.038220665644273 0.332420740103091 0  0.6678017527842831 0.07701763866051195 0  0.89375 0.41 0  0.5111435174287687 0.07335351331957608 0  0.176193934632343 0.0734896648625108 0  0.07390688010811153 0.1697064032433452 0  0.05452951551825875 0.25625 0  0.61875 0.41 0  1.452769549894695 0.1548122580621249 0  1.369219062229598 0.07430640243902442 0  1.30625 0 0  1.720943423819132 0.1714577452753128 0  1.157188124459196 0.205 0  1.094219062229598 0.07430640243902437 0  1.304056576180868 0.1714577452753128 0  1.67579304192913 0.07430640243902437 0  0.2672907219039591 0.3037570723459566 0  1.209670467133757 0.1362100266964769 0  1.58125 0 0  1.03125 0 0  0.06875000000000001 0.41 0  0 0.35875 0  1.58125 0.41 0  1.631724228912893 0.3381867502687533 0  0.8240147050827157 0.1225233169495944 0  1.825608881788174 0.14499488549201 0  1.85625 0 0  1.44375 0 0  1.44375 0.41 0  1.85625 0.41 0  2.13125 0.41 0  0.7562500000000001 0.41 0  0.7562500000000001 0 0  0.89375 0 0  0.34375 0 0  0.34375 0.41 0  0.20625 0.41 0  0.06875000000000001 0 0  1.16875 0 0  1.03125 0.41 0  0.61875 0 0  1.71875 0 0  1.99375 0 0  1.99375 0.41 0  0.3972301426712326 0.2593842555611471 0  1.340625 0.3489494290853124 0  1.134375 0.3489494290853123 0  1.700180620188976 0.3438659752031281 0  0.5003922072260507 0.341765274319271 0  0.6212513815748759 0.2209216137134851 0  0.6885607720119526 0.215393731583638 0  1.033412357328477 0.1612902025713047 0  2.135782184673599 0.07126652247502523 0  1.668441847249787 0.2129203728327609 0  1.295782514339747 0.2378437748815763 0  1.409375 0.3520314716057996 0  2.129248544730567 0.1906135162504124 0  2.060771381434487 0.1989445750470348 0  2.013252586573865 0.1496169464686054 0  1.942766402200229 0.1734448904596831 0  1.895522487186454 0.06076163953489683 0  2.069553871656643 0.06605731020975725 0  0.9281250000000001 0.3539050257418612 0  1.274680914880868 0.3520219391081363 0  0.3030138498135347 0.2488370856812789 0  0.8223773249563684 0.341761430177996 0  0.9018164060227267 0.2326477848736739 0  0.8143027982392851 0.2440265179987191 0  0.7225087161029304 0.2699907246386231 0  1.614713220494657 0.09473434380863296 0  0.378125 0.3566194660323104 0  0.309375 0.3566194660323104 0  1.72990325744076 0.2380068107952482 0  0.6915936999299305 0.3429472631234433 0  0.6268087624932918 0.3466455500035671 0  1.356580098625191 0.2120393231351682 0  0.3060160055995138 0.1590148921620778 0  0.3954648733249218 0.156380553890791 0  2.034370752044885 0.2668681600792073 0  1.51768709249349 0.3426260931494756 0  1.561883724969884 0.1650446847858835 0  1.197344062229598 0.2523725417393646 0  0.9281250000000001 0.05124999999999999 0  1.804085235518364 0.3468178408964637 0  1.817887819205233 0.2589243285818559 0  0.9107805776841645 0.1653834539923287 0  1.905897727272727 0.3485060975609756 0  0 0.05125 0  0.844212276491354 0.0614201194265309 0  0.378125 0.05244637078450034 0  1.008571329007178 0.2705955969954818 0  0.7724048032149464 0.1559079561351474 0  0.7203054377831548 0.04941826955193545 0  1.192836486056382 0.3562350748565544 0  0.5967108020713719 0.1479294686523888 0  1.28257088594801 0.2944411014911587 0  0.7041890234548132 0.1222025174424443 0  1.474860187679412 0.2504218616229368 0  1.406767003493824 0.2829282258560709 0  0.3201325899091991 0.05890121548989159 0  0.5979220912872258 0.2727591995766724 0  1.845656689180403 0.1998310418452388 0  2.144958525570388 0.2909790873294231 0  2.2 0.15375 0  1.57794966442982 0.3540357145964566 0  0.9483181579620558 0.1214693369582054 0  0.0496154796471391 0.333125 0  1.508991196088596 0.1421783375065625 0  0.09776612425612034 0.2204896805326566 0  1.50436820029908 0.06143401634903343 0  1.223857000523521 0.0823554862453532 0  0.2531953886959507 0.3582003209055908 0  1.153316824384777 0.1289850171317837 0  2.148922302309752 0.1258841779285271 0  1.621993280276081 0.2841214267927899 0  1.550118654119087 0.2461998729100966 0  1.327182649291491 0.1216967252533594 0  1.753125 0.04556020050186112 0  1.271875 0.04556020050186116 0  0.9824282234771738 0.05051969257615314 0  1.039510847866381 0.05683351822678641 0  1.94956388244759 0.1180512551534177 0  1.949997712993411 0.04965831614304109 0  1.771961817615021 0.1530278789497521 0  1.909246823951428 0.2812757146784527 0  1.101974016627944 0.2038045618205013 0  0.7906250000000001 0.0444674049654372 0  1.948575539857022 0.2445328248721197 0  1.697271520964565 0.1233917627620729 0  1.065625 0.3689344961371042 0  1.085849084308977 0.3170853572226867 0  0.9840604787624379 0.3582077516409966 0  1.577403511714593 0.05463601888079143 0  0.05622663515370135 0.05493816910862376 0  0.8762396958822678 0.3392249777398821 0  1.751571320346033 0.3651102912045228 0  1.055327852410105 0.111864799513911 0  0.1583785085108421 0.2994699345738728 0  0.1455283439499995 0.3542795598723423 0  2.2 0.35875 0  0.225705107073232 0.05084786997482401 0  0.1455852234589313 0.1166494778469164 0  1.466879772203159 0.3611261772912453 0  1.990280163552011 0.3564754268533217 0  1.17471064520912 0.2990917256188288 0  0.7221925551074015 0.1739659241003985 0  0 0.25625 0  2.2 0.25625 0  2.2 0.05125 0  0 0.15375 0  1.853978576207987 0.35875 0  0.21965520498276 0.1015543880164422 0  1.515638456102889 0.2882700110184686 0  0.09048297387599738 0.3637717362208066 0  2.150453692751374 0.2387066338105111 0  1.323782677156475 0.04897634338873398 0  1.409375 0.03715320121951221 0  1.406484531114799 0.1087852750766809 0  1.134375 0.03715320121951218 0  1.627401732573545 0.04552157221025036 0  0.446875 0.3713289093361426 0  2.045405893604797 0.1105340662939892 0  1.255408269734577 0.1577307500159216 0  2.028125 0.03707597992059326 0  0.04420832937638274 0.128125 0  0.5817551710628505 0.3702615006034757 0  0.1197849154434487 0.2663398672460083 0  1.248258025468107 0.2565907092181813 0  0.1300647302703173 0.0508462728378621 0  0.7738123537510222 0.2761231499240648 0  1.203125 0.0366132337404304 0  0.5444207041612499 0.111205399508622 0  0.8016457771828226 0.1964238426015905 0  2.072662025974815 0.2975086504196739 0  0.4019040438866802 0.2103993403217561 0  0.4677372330974851 0.04827477407630658 0  0.8677218578847617 0.1432970430140788 0  1.058011122005847 0.2758866204059919 0  0.4429405887974043 0.2746184809910084 0  0.5843750000000001 0.03726989681835222 0  0.6318596133730142 0.1128692182767254 0  0.4862628454464408 0.2957029785303028 0  0.7805186758662764 0.3673578380827891 0  1.887722846421017 0.1760882698830035 0  0.3498893058880703 0.256189258793856 0  1.472640588990488 0.1118278026240017 0  1.865937103925594 0.2604137786483804 0
[...]
<PointData  Scalars="f_43"> 
<DataArray  type="Float64"  Name="f_43"  format="ascii">4.2641088903799584e-01  4.5746225411638164e-01  -5.6842198200692880e-09  4.5918089658418092e-09  -3.5812312985263406e-01  -3.2143265415704764e-01  -3.4382122889731220e-01  -5.1132254028063351e-01  -9.2825314931502234e-01  8.6750136981795578e-01  2.0006132679605297e+00  4.0335283883496625e-01  -1.1554362214740026e+00  -5.0518493035692902e-01  -2.7433151175394271e-01  -2.5211019709209392e-01  -2.8967057273001717e-01  -4.6135898800691105e-01  -1.3029640935036102e-01  -1.0789804783520138e-01  -2.8831528678448787e-01  -1.3244903899085630e-01  -6.6243855080064779e-02  -5.1213498551475600e-01  -1.2970198332957527e-02  7.6878491474580957e-01  -5.1941840487398708e-03  -2.0063621949341268e-01  -1.9176280690434039e-01  4.6508606843292674e-03  2.4603529459016438e-02  2.7902883828589346e-02  1.4548189424597402e-02  3.0610840850926087e-02  -4.8975747884562630e-03  2.5389450484142768e-02  2.9099569413554814e-02  -8.3830762935664993e-02  -8.5936143781162308e-02  2.1035467635365613e-02  1.0236524540227962e-02  8.8044942960526056e-03  1.1042907289620152e-02  -7.7817306736379937e-09  -5.2619881750829302e-02  1.8429104674782201e-02  9.9912914940442198e-03  -1.4852600025805621e-01  1.3958141881504132e-02  3.7374842863004757e-11  -1.4414904156817471e-01  1.7210374726029359e-02  2.6793160688410547e-02  1.6714958226570063e-02  3.0027558763681302e-02  2.2955777420660271e-02  -2.4782578095102710e-02  -5.2000246800449137e-02  -1.8989443537440923e-01  3.7418733225558037e-01  3.5119616787942126e-01  -1.7209275093017862e-01  8.1316201189545574e-04  -4.3154870188389424e-03  2.2729500412780938e-02  1.1159855530612566e-02  1.9869802691070901e-02  3.1532499251588415e-02  -4.9206702548394718e-03  -2.5261711185270425e-01  2.6515514920971931e-02  9.8064470061151685e-03  1.2666218096901563e-02  -3.3402624722585247e-02  -2.5066179509921033e-02  -2.9061928286418975e-01  5.2302654692924844e-01  5.5736883775521950e-01  -1.8743072803156999e-01  -1.0058538492746630e-01  -1.9721641934980533e-01  1.7823157653448776e-03  1.4718961621926676e-03  1.4006908649807175e-02  2.2478079479402520e-03  3.2824406906604105e-02  -3.0857963145173667e-02  -9.9318983816053488e-02  3.0967972980560279e-02  2.8929265113322153e-02  1.2607262079489529e-02  5.7758043393359871e-10  2.8922690254336400e-02  1.3123512424098220e-02  2.7601195183462886e-02  -1.7786268368598868e-02  -3.5092233192379885e-01  -2.1798335528550750e-01  5.5662969518640209e-03  1.9619395202323864e-02  4.6645615159927278e-01  1.6601156350531936e-02  1.2916400907506819e-02  1.5481416495671627e-01  -1.2807043393826903e-03  -1.9359580357530079e-01  -2.0862506600269168e-01  4.9599529687844429e-01  -3.0624613904771846e-02  5.8867568758521407e-03  1.8207916889980535e-03  7.8287485702826926e-03  2.0199915680172101e-01  1.8357017360370473e-02  -2.0538532416897429e-01  -2.1131557747152344e-01  2.9848472277003737e-02  -2.1790705389513312e-01  2.1897280398163424e-02  -1.4447560811836652e-01  1.8940799917935885e-02  2.0980034821470744e-02  -1.6060971212379505e-01  -6.4454468027519585e-02  -2.2102661595365800e-01  2.1865121191562836e-01  9.0140565165740660e-01  7.2364138728323513e-01  -1.7279987534620730e-01  2.8494620059186709e-02  3.2779670749472752e-02  2.1876775094985933e-02  2.3943011088516108e-02  7.9121214601614864e-03  -9.3552031439728227e-03  1.8807992693806053e-02  1.5795817254149691e-02  -1.8389480062411409e-01  -1.6974501029458841e-03  1.0198070993683845e-02  -1.0124664589619550e-02  4.1425488514603587e-01  4.3858384956953944e-01  3.1794812684461521e-02  3.0871446753922161e-02  -4.1094098939416436e-02  2.8346848508518006e-02  2.9971854083444289e-02  2.5763101380557474e-02  2.8353811577008668e-03  2.0163818559122366e-02  2.2380401352071330e-03  -1.1251832189353997e-01  -1.1614860888292945e-01  -5.4297226486044042e-02  -1.3332337552615761e-01  -1.0367978902549951e-01  2.0102836563956819e-01  4.4313195630503049e-01  -1.4262069211307451e-02  -3.3605261196753930e-02  -1.7763812886398442e-01  2.5059496589818715e-02  1.5994120948252484e-02  2.7699405811400755e-02  -3.3280904558798508e-01  -2.7517709900189286e-03  1.0431201875804676e-02  2.4426419656673092e-02  -2.0660830923051043e-01  -2.4112037450350435e-01  -1.5160074746154717e-01  1.7699170939858913e-02  6.4544869282449962e-03  1.7331404741601549e-02  7.1529152917349740e-03  -9.1926289534607752e-03  1.7330954711579217e-03  9.6732786719778800e-03  9.2921074269608772e-03  1.5863158367852535e-02  2.9077433656414554e-02  9.3485480875970927e-03  -5.5543085133647294e-02  1.8771160075850293e-02  -3.5141641777400501e-01  -7.5031937719420835e-02  -2.4567776075249351e-03  -9.8287005694260143e-03  -1.0438237877638237e-01  5.3374522722399531e-03  -1.6323155478730714e-01  -8.0853591713388323e-02  2.1419232143869392e-02  -1.4024540786859985e-01  -1.7460733711998316e-01  -5.9949936593762148e-03  -3.4440068671667401e-01  -3.6758136692357668e-01  1.9501456185269633e-02  2.4954450407942703e-02  7.3098961019727694e-03  3.1483202277578420e-02  -3.5901313158647419e-02  1.3620247084951598e-02  4.0375824371339832e-03  2.4784636962242815e-02  2.6277624367618390e-02  4.7039066234171445e-01  -7.1929093592190671e-02  -1.8527748235422523e-01  -9.8537838832891272e-03  -6.1131827309531005e-02  -1.2889387857944301e-01  2.6437776587904017e-02  -2.5118659157388545e-01  1.5871940151052581e-02  -1.3747970875540019e-01  1.6908555928850207e-02  -6.6483313066434254e-03  -1.2794151625295389e-01  -2.4734057152717676e-01  7.0620655381372485e-03  -1.1468710725363184e-03  4.9160964905222391e-09  3.4151351934769300e-02  5.8014298510544876e-03  4.6200206380585773e-01  2.2641470952666509e-02  1.1207956203990546e+00  1.8664612814715511e-02  -7.3593332093645387e-03  3.4564495060964949e-02  -1.0037463431560732e-02  5.9169668269676229e-03  3.2941210213927888e-02  3.0295251946383175e-02  2.5687772246859242e-02  2.9032358260777678e-02  1.1190472345481891e-02  -1.5050414005510463e-02  -5.7000815083337025e-03  1.8759800162219630e-02  2.2437766500724120e-02  2.7926826272637865e-02  2.3703879008934975e-02  1.2730030906182728e-02  -9.7994838353908931e-02  2.8478658535990693e-02  2.0667434693007882e-02  -2.1531390969512249e-02  -6.8630047932733652e-03  -4.7554842393387545e-02  8.3045292872628313e-03  4.6356225431030351e-01  -5.9542309429900513e-02  1.8741418178041386e-02  1.6069833182970304e-03  2.3403963086027907e-01  3.2556138064116363e-01  -5.0286520047659432e-09  1.0378480950413717e-01  3.4212058339740742e-01  7.2271247063341723e-03  3.0170959275543970e-02  2.6276243073304652e-02  -1.1031237147144958e-01  6.7434900028464173e-01  3.7374842863004757e-11  -1.0813638772342261e-08  7.0087278164441091e-01  1.7209475911939682e-02  -1.3515087723966043e-01  2.4135082648621520e-02  4.0560946599101871e-01  -4.7995118868782716e-03  2.7196834447166696e-02  3.0119073249128943e-02  3.0388389807269010e-02  -1.6110097137245691e-02  9.4359581719579942e-03  -1.8735668501640279e-01  9.4545561526603282e-03  1.2274198985886699e-02  1.1742046311796105e-02  6.4416458745491900e-01  -1.8487860060705325e-01  6.6986400654028244e-01  2.2960799851776306e-02  3.7975007659211324e-01  -5.6595508142323898e-02  -1.0873428046173257e-02  -2.7665030135465735e-01  -1.8679028054473832e-02  1.2234309219882378e-02  -3.2783413313576526e-01  -2.0319767537125275e-01  5.5190209053592213e-04  1.5720023875137475e-03  -2.0524696874452406e-01  -1.9122896753348734e-01  -2.0460641381326103e-01  -2.1644231188623653e-01  -9.8503027718305408e-02  1.9003129184988674e-02  -3.5735441393426826e-01  2.6987551591172242e-02  1.4584011871603209e-02  2.1608790586758284e-02  1.2608716958847901e-02  -1.2686448647707355e-01  -1.1219989548864124e-02  -1.2825360593345805e-01  -1.7325772312962354e-01  -1.2027446530365252e-01  1.1095458621986002e-02  -2.2563402309606848e-01  -1.9816851696282170e-01  2.5076939035510563e-02  -2.8501029114832688e-01  -2.3465108565677398e-01  7.0465911701537076e-03  7.7982980688669117e-03  5.7529939134765137e-03  -4.5369708105484394e-02  2.1514297329208700e-02  -3.4229090014867458e-01  -3.5270872160534866e-01  4.8427099074430397e-03  -3.5422835657932228e-01  9.0899398869772330e-01  1.1401992504545669e-02  8.4389608237549019e-01  2.6024916148157638e-02  -2.8012166928990034e-03  -3.9972096280118045e-02  -2.8495228106880546e-03  7.1004473119629799e-03  1.1182955329184075e-02  -3.4504177615956928e-02  -1.0308387233308670e-02  3.0689060928076231e-02  -1.5371542252404569e-01  -2.8647606866017028e-01  2.9743882098459285e-02  -7.2936735286492207e-02  2.6147410818477938e-02  -1.0066953110981724e-02  -2.7442442733312459e-03  2.1507811116470543e-02  6.2239326756199607e-03  -1.9523005595067694e-01  -1.9516548864259106e-01  2.9293444479245461e-02  1.9785029560454571e-02  2.3571989109851949e-02  3.6591993673357540e-03  -7.3560319317768678e-04  4.2391995588078146e-01  -2.9659356735650411e-01  -3.3567232313553505e-02  2.8373022427916395e-02  3.0169691969309329e-02  2.9395485686918695e-02  -8.0409988084697848e-02  1.2523709779054286e-02  3.1483274181685367e-02  -5.3272661978458320e-02  2.1371479036142577e-02  1.7466753055206972e-02  2.2228738517977537e-02  2.9801653661296851e-01  2.6750061519882101e-02  -2.0574698411064657e-01  -2.0389978423989555e-01  -9.9018998675820414e-03  2.8615231884260539e-01  1.1432364863166164e-02  -3.7522148520128557e-02  1.9295886205549895e-02  -2.4303803747602423e-01  2.5648822651188206e-02  9.9753570998752199e-03  2.3162705679509347e-02  3.1918682344773623e-02  -2.6400664872644442e-01  -1.6163775653461659e-01  9.8204944251760028e-03  -1.3385549023345373e-02  3.0352316698331945e-02  -4.7580095682230516e-03  2.9737156311378816e-02  4.1171966379318029e-03  4.1912702462057572e-01  3.9672310723114319e-03  -1.4819462206613229e-01  -2.0570369358387566e-01  -1.2090258570645369e-01  1.5996047721875573e-02  -3.3557571657075858e-01  2.5064762836567462e-02  -7.0504438402656994e-02  3.0071813824613287e-02  2.8634147907613948e-02  2.5737984351644538e-02  -1.6408365988147770e-02  2.0838711217789296e-02  2.4046605117923746e-02  1.5688004565171935e-02  1.0187825154330853e-02  4.5478359196324197e-01  4.2676377529849202e-01  2.0280544719759225e-02  2.8905745919364765e-02  -7.2937243318718967e-02  -7.0657247395532682e-02  -1.7087897648264176e-02  -1.9908314267017058e-02  5.5886729511437461e-01  -2.3606383413709561e-01  6.9582120346242915e-01  -1.7440773584954106e-01  3.0385523097598979e-02  -9.9423632659497677e-02  -4.6560996769610639e-02  -2.5646964384163407e-01  2.2494036331583964e-02  7.6504792088762508e-01  -1.8257803528101305e-01  1.0080002787092767e-02  3.8459236622566421e-03  2.5637918806098503e-01  2.6348975670358973e-02  5.9937785923169640e-01  1.4399742863388939e-02  -1.2689892407983844e-01  1.9500717333136484e-02  1.2432923195930262e-02  2.6721265684746531e-02  2.0145158539749800e-02  2.9773233967573306e-02  3.1348944888758314e-02  -4.7474271985743499e-03  1.9311985735238329e-02  2.3780415997986470e-02  -1.9385073951191506e-01  1.0004676306307032e-02  -2.1571042935771875e-01  -1.6437387947123078e-01  -1.1923652675868165e-02  5.2709457082750922e-03  5.3168620097612729e-01  3.3869548512782024e-02  2.8736464287638548e-02  2.3613386460853181e-01  4.3832898152882499e-01  -4.4143159785714550e-02  5.0073507324440747e-01  3.0212294958768073e-02  -6.9276315796189342e-02  3.2282787823736492e-03  -2.0519033900294989e-01  2.6994482725156643e-02  3.0409837579520097e-02  -1.7449930041486528e-01  -6.2353624468785986e-02  1.1176717733840082e-02  1.8370237765980270e-02  2.3873932313866749e-02  4.0556711032060334e-03  -4.5063656863752084e-02  -2.7700534201784963e-03  -2.3382443232336141e-03  1.6751212244070182e-02  1.2579290345079147e-02  -3.4168138865017211e-01  3.1292955208167564e-02  -6.2092172286487522e-03  4.0767813411032089e-03  7.9226376537467318e-03  2.0902864223649051e-02  4.5200972815340598e-03  1.6350656945515504e-02  2.8940442225127115e-02  2.1538364133453704e-02  -2.0867596277425724e-03  -1.9927484292534378e-01  -1.9373556004817227e-01  1.0019325733948944e-01  -7.6486416557039000e-02  -1.1420800736879087e-01  -1.9565722113730871e-01  -1.7309437501017566e-01  1.3654881506736176e+00  -1.0704477344369486e-02  1.5811321352789012e-01  1.7979732675133628e-02  8.4421518219053443e-03  7.4798615843187531e-03  -2.7162997696433876e-04  -7.4282909479161992e-03  1.6562316971207944e-02  1.1795127926298474e-02  8.6223610768943384e-03  2.3483026760380471e-02  -3.2628725888171345e-01  -2.0104418803057753e-01  2.1887530669270922e-02  -3.3635552050109441e-01  -2.6751289073672829e-01  -4.9634153505343024e-04  -2.8402720328653674e-01  -3.5040393143281423e-01  -1.1348374450703944e-02  2.4845385434698729e-02  8.5825925123683231e-03  9.1260791791844195e-03  2.8093806817694668e-02  1.6692471278276562e-02  -2.2580610505356441e-01  1.6019414523143845e-03  9.9134832651048589e-03  2.3108205403044868e-02  -1.5868558592260187e-02  2.8300450480127654e-02  3.0725526983275504e-03  8.2103121185863742e-03  2.9298443252015419e-02  1.2853619419294466e-02  1.9005621378217593e-02  -2.0278109033236538e-02  2.8475939001090109e-02  -1.3178641486218237e-01  -3.8621322767892742e-02  -5.8080255582868695e-02  -3.6536731149849799e-03  -1.5046531386814267e-02  3.5451740881324616e-05  -1.0149037237067584e-02  -1.8632696345307234e-01  -1.6801659012091058e-01  -1.4432190497307171e-01  3.9125277736623665e-01  1.1230907003159002e-01  -9.7324691472802982e-02  -1.9236932565686096e-01  -1.8456297430171292e-01  -1.0094263118137647e-01  -5.0644701598361937e-02  -1.1427840307153836e-01  -1.5681613362263916e-01  -1.5933584818828422e-01  -8.6075413783580183e-03  1.0876562015859610e-02  2.0701056610013598e-02  1.2013856209482105e-02  1.2328168807932397e-02  3.0164607151228366e-02  -1.5086771660493013e-02  2.1963603989939001e-02  -1.5062855037948297e-01  1.1001418298884274e-02  -4.9381536756769933e-03  1.4222806856779957e-02  1.3370731611960692e-02  3.0108649190276168e-02  -8.1264001533002533e-03  -8.5634874506738387e-02  -5.5597915282075881e-02  -3.1605992585170500e-01  -3.3916030876606001e-01  -1.5185675125655268e-01  8.9330423533022160e-03  -7.2426626291888126e-03  3.2252084890128864e-03  -1.0611938868093618e-03  3.9459010538204159e-01  2.3521113917199143e-02  2.9749115573618878e-02  1.5602205324099110e-02  -9.9589066261768819e-02  2.7476391596869043e-02  2.8895619845782949e-01  -3.5751853809619745e-03  -2.7446190894840671e-03  2.8799476530535710e-02  1.9981351743278336e-02  4.8831148667346615e-03  -1.3637927244493347e-01  1.9771213559835958e-02  -6.6933960163926137e-02  2.9562492543564467e-02  2.9590070676513827e-02  6.8489583312659136e-03  -1.6074679297385477e-01  2.7306514747530628e-02  1.7693462209319760e-02  7.3884580133204159e-01  -1.9090653452962719e-01  -1.6558396417683512e-02  9.1723969863872230e-03  -2.6084537005079722e-01  -6.7317052892462412e-02  9.8022716925259008e-03  9.0825832217120862e-03  1.3675520235272104e-02  8.0237622680965837e-01  2.7088837321002292e-02  1.4954281675734871e-02  2.0555579995790264e-02  2.1179676517938485e-02  3.6951924259641766e-01  9.0830990950417304e-03  3.3098321940548781e-01  -5.3238503382116081e-02  1.9943374958842536e-02  -3.5169517413293860e-01  -3.6145045204736143e-01  1.6032907358016595e-02  -3.5517774900771243e-01  -2.6798546099077270e-02  1.2175524364000340e-02  2.7776326061821982e-02  3.6185067798314482e-03  2.0134493035585978e-02  5.3466883512584724e-03  -1.5431107688384336e-03  2.0635655530847692e-03  -1.9475266751792293e-02  7.8814832670232367e-03  -1.9346458033624131e-01  7.4305902943874909e-03  8.7726009315357498e-03  2.7177453512216492e-02  -8.5378401094738252e-02  -1.1823225897150566e-01  -9.0727100050875711e-02  -6.0559274959224099e-02  2.4655629250504671e-02  3.1661144167917377e-02  -2.6344761247233978e-01  -1.6716580283447763e-01  -1.9284436508838254e-01  3.2299443620532997e-02  5.8411320221924001e-01  1.7364099074402391e-02  -3.8698717055815676e-03  -1.0616242285074473e-01  2.9558669482241666e-02  -2.3420193631953762e-01  2.1787119936855746e-02  -3.4099439809880222e-01  -8.4802069389528761e-03  -1.4844632391923715e-01  -1.7813933875686908e-01  -2.0847940861413786e-01  3.1679197729489669e-02  3.8436867534294606e-03  1.0779752479098688e-02  1.7219966335833842e-04  2.9141058188451280e-02  -1.0037974592584206e-01  1.1239899032870881e+00  1.7780606069305125e-02  -1.9669550244610059e-02  -3.1444832946121226e-01  1.8807832047350016e-02  2.7016675726927238e-02  1.2373410646450308e-02  2.3678169778576154e-02  9.6448975882438871e-03  1.0432967124320052e-02  4.8899240877317467e-03  1.8852265040988608e-02  3.0265080485430904e-02  -3.1074186400049365e-02  -5.0113221648454276e-02  4.5786442614747808e-01  4.5612314368721091e-01  1.4261827233861237e-02  -2.7554699003417166e-01  2.8436649499616409e-02  -2.1589766865103856e-02  4.8560006753415024e-03  -2.2614397706678096e-02  1.4456510514352603e-02  1.5181070110279454e-02  6.0402269090419425e-01  -4.9226638623116555e-02  3.2336817576907484e-02  7.1637559627992273e-02  2.4549676658897088e-01  -1.2112460848568779e-01  1.4004612832561382e-02  -1.9682752519413994e-03  -2.4973500333542567e-01  -2.2592694472580899e-01  -3.4535570209459326e-01  4.4705739228606666e-03  1.7820249025536906e-02  -2.6692656515365482e-01  4.4051861375985929e-01  7.5233227134562330e-01  8.6638580259144077e-03  -1.4467497813006799e-01  3.0181855003726169e-02  2.7757432945521791e-02  7.8239573133347690e-03  1.7293832013606562e-02  -7.7817306736379937e-09  -2.0373823079361988e-01  3.2968545466771693e-02  3.5351607810846491e-03  -2.1175963028948935e-01  -2.0940826605652885e-01  1.2331181424356477e-02  -1.4170344429441628e-01  3.9082689825833106e-01  3.7566289869249858e-01  2.2179304904830117e-02  -8.9226873057648443e-03  8.9874140331696242e-03  1.1424385610799653e-02  2.1189475230089291e-02  2.6732534963928328e-02  1.7013369068504359e-02  -1.7943165726743682e-01  -8.6405609322301197e-03  -1.2104421003698942e-03  -1.5036115093880767e-02  -2.1343856092501817e-02  -8.4121813540370072e-02  -2.2065199697720048e-01  1.2389075148779386e-02  -1.2503683936884000e-01  4.5464143211464317e-02  5.7758043393359871e-10  2.3189107755909950e-02  1.3047959553861944e-02  1.5341893807956560e-02  -1.5179467465438212e-01  2.7242874825771309e-02  -1.2875947292616909e-02  3.8875654455761584e-03  1.9333389412313672e-02  6.8089115301451673e-03  -7.3892946353591431e-03  2.5937848919564799e-02  -3.7001575201361161e-04  -3.8451125236710223e-03  -6.2746219392554869e-03  2.8415989859155177e-02  3.1313916378447104e-02  -4.3043523055561847e-02  3.9543953237015755e-01  -9.0039494108521342e-03  1.7604402623080512e-02  -6.2275287738424230e-02  -1.0070926536591264e-03  -2.1643115165127717e-03  -2.4294144013045312e-03  -2.0815829701286831e-01  1.3218676006271491e-02  3.0857635007161106e-02  2.7004325897017224e-02  -2.2709037025639153e-01  2.0210003253317902e-02  2.6987267527218986e-02  2.9556828887534043e-02  -1.9318893091993755e-01  -2.0581338785140760e-01  7.1920179129250222e-03  -2.2037190592427014e-01  -2.5130683490967642e-01  -2.4161481849845040e-01  -7.8400756788838642e-03  -1.4171241686706961e-02  9.3175324582389051e-03  -4.2086859260961740e-01  2.9740362325335473e-02  -1.3753377989448023e-01  1.6004920938903419e-02  3.2131209645733960e-01  -4.2719188072667495e-02  -1.5600508485125531e-02  -1.1525719086843872e-01  -7.7817306736379937e-09  1.0792779623623026e+00  8.7973849388590675e-01  -4.1116551387654264e-02  -5.8579254744451387e-02  -1.3378894888756820e-01  3.4635802304804016e-02  3.2824157467304015e-02  -1.2356596324381586e-01  2.4541121237093570e-02  -1.8310164565248346e-01  5.2370370957151768e-01  4.6918058160885967e-01  4.7371770566041027e-01  1.6724457471341193e-02  3.1380644213532590e-03  2.6344029809143230e-02  3.1621146950991455e-02  2.7543416191967481e-02  -5.2202026575566256e-03  5.3058822352295854e-01  -1.4519256397068121e-02  -3.7648841217914747e-01  3.7923298446788439e-03  7.7104111583474995e-03  1.6151121072421490e-02  2.6443913952144533e-02  2.4242317488904756e-02  -1.9441511319793131e-01  2.1