<?xml version="1.0"?>
<VTKFile type="UnstructuredGrid"  version="0.1"  >
<UnstructuredGrid>
<Piece  NumberOfPoints="2426" NumberOfCells="4534">
<Points>
<DataArray  type="Float64"  NumberOfComponents="3"  format="ascii">0 0.41 0  0 0 0  2.2 0 0  2.2 0.41 0  0.2404508497187474 0.2293892626146237 0  0.25 0.2 0  0.2404508497187474 0.1706107373853764 0  0.2154508497187474 0.1524471741852423 0  0.1845491502812526 0.1524471741852423 0  0.1595491502812526 0.1706107373853764 0  0.15 0.2 0  0.1595491502812526 0.2293892626146237 0  0.1845491502812527 0.2475528258147577 0  0.2154508497187474 0.2475528258147577 0  0.5404508497187474 0.2293892626146237 0  0.55 0.2 0  0.5404508497187474 0.1706107373853764 0  0.5154508497187473 0.1524471741852423 0  0.4845491502812526 0.1524471741852423 0  0.4595491502812526 0.1706107373853764 0  0.45 0.2 0  0.4595491502812526 0.2293892626146237 0  0.4845491502812526 0.2475528258147577 0  0.5154508497187473 0.2475528258147577 0  1.1 0 0  0 0.205 0  1.1 0.41 0  0.55 0 0  0.55 0.41 0  0.275 0 0  0.275 0.41 0  1.65 0.41 0  1.65 0 0  1.375 0 0  1.375 0.41 0  1.925 0 0  1.925 0.41 0  0.8250000000000001 0.41 0  0.8250000000000001 0 0  1.5125 0.205 0  1.7875 0.205 0  0.9625000000000001 0.205 0  1.2375 0.205 0  2.2 0.205 0  0.7560964076246335 0.2151713709677419 0  1.99375 0.2152743902439024 0  2.0625 0 0  0.6875 0 0  2.0625 0.41 0  2.2 0.3075 0  0.6875 0.41 0  1.7875 0.41 0  1.375 0.1486128048780488 0  1.5125 0 0  1.7875 0 0  1.5125 0.41 0  0.9625000000000001 0 0  0.9625000000000001 0.41 0  0.4125 0 0  0.1375 0 0  0.1375 0.41 0  0.4125 0.41 0  1.2375 0 0  1.1 0.1486128048780487 0  1.2375 0.41 0  1.65 0.1486128048780487 0  1.126715909090909 0.2793064024390244 0  1.676715909090909 0.2793064024390244 0  1.348284090909091 0.2793064024390244 0  0.34375 0.3032389320646208 0  1.894702181800738 0.1282910975492754 0  2.092797818199262 0.1282910975492754 0  1.85625 0.3075 0  0.8630851210521902 0.286932093388664 0  0.89375 0.1025 0  0.35 0.1090282786671641 0  0 0.3075 0  0 0.1025 0  0.6526217841291382 0.288229645480046 0  0.7562500000000001 0.09660248895515888 0  0.6568633732316684 0.1557582854763441 0  2.099172119769978 0.25625 0  1.002356446954348 0.1010393851523063 0  1.99375 0.08395950269330846 0  1.459960956013612 0.3075 0  1.569025960719943 0.2986889805672169 0  1.03125 0.3278689922742084 0  0.75625 0.3247156761655783 0  1.959375 0.3126371951219512 0  1.749222215368287 0.1025 0  1.275777784631713 0.1025 0  2.2 0.1025 0  1.225938124459196 0.3075 0  1.550777784631713 0.1025 0  1.44375 0.07430640243902442 0  1.16875 0.07430640243902437 0  0.3528655045338512 0.2063263890916129 0  0.5890337614812103 0.08775733857679162 0  0.8504912436891263 0.190072835691683 0  1.899250267340833 0.2229966846119207 0  0.1020898364287272 0.3140258291809757 0  1.766482954545455 0.2934032012195123 0  1.051658316544432 0.2265720188842194 0  0.2 0.3400647632937836 0  1.421109702350723 0.2261157654379721 0  0.4812500000000001 0.41 0  0.4324401666997539 0.3216425986889796 0  0.098916018031319 0.09171660955420841 0  0.9508742791313441 0.2921736960864468 0  2.13125 0 0  2.118919042110979 0.3422084711244843 0  1.30625 0.41 0  0.20625 0 0  1.597888256393107 0.2173787389261347 0  0.4812500000000001 0 0  0.4324082967851086 0.08384041677422771 0  1.829299675393195 0.07400700849299596 0  0.568219932524165 0.3212274660843853 0  1.71875 0.41 0  0.268005226542646 0.08512186835670006 0  1.16875 0.41 0  2.038220665644273 0.332420740103091 0  0.6678017527842831 0.07701763866051195 0  0.89375 0.41 0  0.5111435174287687 0.07335351331957608 0  0.176193934632343 0.0734896648625108 0  0.07390688010811153 0.1697064032433452 0  0.05452951551825875 0.25625 0  0.61875 0.41 0  1.452769549894695 0.1548122580621249 0  1.369219062229598 0.07430640243902442 0  1.30625 0 0  1.720943423819132 0.1714577452753128 0  1.157188124459196 0.205 0  1.094219062229598 0.07430640243902437 0  1.304056576180868 0.1714577452753128 0  1.67579304192913 0.07430640243902437 0  0.2672907219039591 0.3037570723459566 0  1.209670467133757 0.1362100266964769 0  1.58125 0 0  1.03125 0 0  0.06875000000000001 0.41 0  0 0.35875 0  1.58125 0.41 0  1.631724228912893 0.3381867502687533 0  0.8240147050827157 0.1225233169495944 0  1.825608881788174 0.14499488549201 0  1.85625 0 0  1.44375 0 0  1.44375 0.41 0  1.85625 0.41 0  2.13125 0.41 0  0.7562500000000001 0.41 0  0.7562500000000001 0 0  0.89375 0 0  0.34375 0 0  0.34375 0.41 0  0.20625 0.41 0  0.06875000000000001 0 0  1.16875 0 0  1.03125 0.41 0  0.61875 0 0  1.71875 0 0  1.99375 0 0  1.99375 0.41 0  0.3972301426712326 0.2593842555611471 0  1.340625 0.3489494290853124 0  1.134375 0.3489494290853123 0  1.700180620188976 0.3438659752031281 0  0.5003922072260507 0.341765274319271 0  0.6212513815748759 0.2209216137134851 0  0.6885607720119526 0.215393731583638 0  1.033412357328477 0.1612902025713047 0  2.135782184673599 0.07126652247502523 0  1.668441847249787 0.2129203728327609 0  1.295782514339747 0.2378437748815763 0  1.409375 0.3520314716057996 0  2.129248544730567 0.1906135162504124 0  2.060771381434487 0.1989445750470348 0  2.013252586573865 0.1496169464686054 0  1.942766402200229 0.1734448904596831 0  1.895522487186454 0.06076163953489683 0  2.069553871656643 0.06605731020975725 0  0.9281250000000001 0.3539050257418612 0  1.274680914880868 0.3520219391081363 0  0.3030138498135347 0.2488370856812789 0  0.8223773249563684 0.341761430177996 0  0.9018164060227267 0.2326477848736739 0  0.8143027982392851 0.2440265179987191 0  0.7225087161029304 0.2699907246386231 0  1.614713220494657 0.09473434380863296 0  0.378125 0.3566194660323104 0  0.309375 0.3566194660323104 0  1.72990325744076 0.2380068107952482 0  0.6915936999299305 0.3429472631234433 0  0.6268087624932918 0.3466455500035671 0  1.356580098625191 0.2120393231351682 0  0.3060160055995138 0.1590148921620778 0  0.3954648733249218 0.156380553890791 0  2.034370752044885 0.2668681600792073 0  1.51768709249349 0.3426260931494756 0  1.561883724969884 0.1650446847858835 0  1.197344062229598 0.2523725417393646 0  0.9281250000000001 0.05124999999999999 0  1.804085235518364 0.3468178408964637 0  1.817887819205233 0.2589243285818559 0  0.9107805776841645 0.1653834539923287 0  1.905897727272727 0.3485060975609756 0  0 0.05125 0  0.844212276491354 0.0614201194265309 0  0.378125 0.05244637078450034 0  1.008571329007178 0.2705955969954818 0  0.7724048032149464 0.1559079561351474 0  0.7203054377831548 0.04941826955193545 0  1.192836486056382 0.3562350748565544 0  0.5967108020713719 0.1479294686523888 0  1.28257088594801 0.2944411014911587 0  0.7041890234548132 0.1222025174424443 0  1.474860187679412 0.2504218616229368 0  1.406767003493824 0.2829282258560709 0  0.3201325899091991 0.05890121548989159 0  0.5979220912872258 0.2727591995766724 0  1.845656689180403 0.1998310418452388 0  2.144958525570388 0.2909790873294231 0  2.2 0.15375 0  1.57794966442982 0.3540357145964566 0  0.9483181579620558 0.1214693369582054 0  0.0496154796471391 0.333125 0  1.508991196088596 0.1421783375065625 0  0.09776612425612034 0.2204896805326566 0  1.50436820029908 0.06143401634903343 0  1.223857000523521 0.0823554862453532 0  0.2531953886959507 0.3582003209055908 0  1.153316824384777 0.1289850171317837 0  2.148922302309752 0.1258841779285271 0  1.621993280276081 0.2841214267927899 0  1.550118654119087 0.2461998729100966 0  1.327182649291491 0.1216967252533594 0  1.753125 0.04556020050186112 0  1.271875 0.04556020050186116 0  0.9824282234771738 0.05051969257615314 0  1.039510847866381 0.05683351822678641 0  1.94956388244759 0.1180512551534177 0  1.949997712993411 0.04965831614304109 0  1.771961817615021 0.1530278789497521 0  1.909246823951428 0.2812757146784527 0  1.101974016627944 0.2038045618205013 0  0.7906250000000001 0.0444674049654372 0  1.948575539857022 0.2445328248721197 0  1.697271520964565 0.1233917627620729 0  1.065625 0.3689344961371042 0  1.085849084308977 0.3170853572226867 0  0.9840604787624379 0.3582077516409966 0  1.577403511714593 0.05463601888079143 0  0.05622663515370135 0.05493816910862376 0  0.8762396958822678 0.3392249777398821 0  1.751571320346033 0.3651102912045228 0  1.055327852410105 0.111864799513911 0  0.1583785085108421 0.2994699345738728 0  0.1455283439499995 0.3542795598723423 0  2.2 0.35875 0  0.225705107073232 0.05084786997482401 0  0.1455852234589313 0.1166494778469164 0  1.466879772203159 0.3611261772912453 0  1.990280163552011 0.3564754268533217 0  1.17471064520912 0.2990917256188288 0  0.7221925551074015 0.1739659241003985 0  0 0.25625 0  2.2 0.25625 0  2.2 0.05125 0  0 0.15375 0  1.853978576207987 0.35875 0  0.21965520498276 0.1015543880164422 0  1.515638456102889 0.2882700110184686 0  0.09048297387599738 0.3637717362208066 0  2.150453692751374 0.2387066338105111 0  1.323782677156475 0.04897634338873398 0  1.409375 0.03715320121951221 0  1.406484531114799 0.1087852750766809 0  1.134375 0.03715320121951218 0  1.627401732573545 0.04552157221025036 0  0.446875 0.3713289093361426 0  2.045405893604797 0.1105340662939892 0  1.255408269734577 0.1577307500159216 0  2.028125 0.03707597992059326 0  0.04420832937638274 0.128125 0  0.5817551710628505 0.3702615006034757 0  0.1197849154434487 0.2663398672460083 0  1.248258025468107 0.2565907092181813 0  0.1300647302703173 0.0508462728378621 0  0.7738123537510222 0.2761231499240648 0  1.203125 0.0366132337404304 0  0.5444207041612499 0.111205399508622 0  0.8016457771828226 0.1964238426015905 0  2.072662025974815 0.2975086504196739 0  0.4019040438866802 0.2103993403217561 0  0.4677372330974851 0.04827477407630658 0  0.8677218578847617 0.1432970430140788 0  1.058011122005847 0.2758866204059919 0  0.4429405887974043 0.2746184809910084 0  0.5843750000000001 0.03726989681835222 0  0.6318596133730142 0.1128692182767254 0  0.4862628454464408 0.2957029785303028 0  0.7805186758662764 0.3673578380827891 0  1.887722846421017 0.1760882698830035 0  0.3498893058880703 0.256189258793856 0  1.472640588990488 0.1118278026240017 0  1.865937103925594 0.2604137786483804 0
[...]
<PointData  Scalars="f_43"> 
<DataArray  type="Float64"  Name="f_43"  format="ascii">4.2791891995930470e-01  4.5857602517004720e-01  -5.2998923202555934e-09  -6.9647262045440656e-09  -3.5649400502694167e-01  -3.2021438619098536e-01  -3.4293118520460036e-01  -5.1032235691977179e-01  -9.2771635220981508e-01  8.6798521490101443e-01  2.0018817455706364e+00  4.0552050501998033e-01  -1.1530976758012736e+00  -5.0362391723429045e-01  -2.7567905468760734e-01  -2.5020153148081348e-01  -2.8425674607982959e-01  -4.5207921223573372e-01  -1.1856816675966417e-01  -9.9460977221908609e-02  -2.8785083360203934e-01  -1.3942138884115346e-01  -7.5179175263857256e-02  -5.1820009785798637e-01  -1.1035711216044287e-02  7.7010139989909965e-01  -5.5361541465387921e-03  -1.9470197855788396e-01  -1.9451921836813738e-01  5.7600055696400265e-03  2.6155573023991012e-02  2.1143765405789588e-02  1.5925011518258297e-02  2.5762582478540231e-02  5.7019220936669248e-03  1.3710972532258541e-02  1.3951107600179776e-02  -8.1826639672459248e-02  -8.4927156954832855e-02  1.5661809463739768e-02  -5.7000661800047691e-03  1.5987181027895269e-02  1.1553522590363602e-02  -1.7098133228896934e-08  -5.3013600008612403e-02  5.8144307376174920e-03  7.8927520454690307e-03  -1.4236230284353085e-01  1.8736325033726447e-02  -7.9179829387666876e-09  -1.4687966642978312e-01  2.1289812223397250e-03  2.7799061359826075e-02  1.3577830534920021e-02  1.4478530057801323e-02  3.1278119000627616e-02  -3.2179462617315288e-02  -4.2892307078816513e-02  -1.8750274912126155e-01  3.7535308256674199e-01  3.5266394167177323e-01  -1.7155108326233365e-01  1.0633683220836543e-02  -7.9889559806012116e-04  6.1131562143341735e-03  1.6877485532804538e-02  1.4397038561265129e-02  1.6806684387378600e-02  1.9024471556811351e-03  -2.4925498676570934e-01  1.6106461080081520e-02  9.2788333405231117e-03  5.5578253798340615e-03  -2.9061382393734188e-02  -2.8586161927821093e-02  -2.9169872987630829e-01  5.2452278932392171e-01  5.5849535100572745e-01  -1.8863564884127773e-01  -9.7191766759574735e-02  -1.9060906783486159e-01  1.3222154610622809e-02  -7.4891842151843082e-03  5.7373056737776490e-03  2.3105399466931072e-02  3.2633449731700882e-02  -2.0846113089448497e-02  -9.9858174505393235e-02  1.6674542310306708e-02  1.4629256108431632e-02  1.9582559978258283e-02  3.9277813457794295e-09  1.0505251431880497e-02  8.3483458506915468e-03  2.1340622701045892e-02  -5.1958009542080515e-03  -3.4879043487250094e-01  -2.1117169056378707e-01  7.8124411916111304e-03  1.4336819386924998e-02  4.6797007599559787e-01  -2.5775842682767012e-03  1.8905092546472220e-02  1.5631997821463972e-01  1.7575043691073450e-02  -1.9468524769314868e-01  -2.1030151821441073e-01  4.9710323176036147e-01  -2.0458179155363250e-02  6.3463486192072973e-03  1.6678761850158156e-02  1.1056038491516435e-03  2.0315127097279598e-01  1.7610062107719829e-02  -2.0121612910393952e-01  -2.0669071737041325e-01  1.5764899397783902e-02  -2.2101915461572891e-01  8.3706697440472187e-03  -1.4370986774525105e-01  6.8148282305227374e-03  1.8625988271576403e-02  -1.5430991695335924e-01  -5.9051943511979108e-02  -2.1489384413145560e-01  2.1977022257089146e-01  9.0261150033957027e-01  7.2509186863980057e-01  -1.7629533673421363e-01  1.8631287063623474e-02  2.8210190710108527e-02  2.2809896824504204e-02  1.2417442496082324e-02  1.3078248631151139e-02  -9.8188869505341971e-03  2.1126799933885037e-02  1.7385985952260347e-02  -1.8186565372265931e-01  1.0632934454550090e-02  1.3072855202298492e-02  -1.6891044220836791e-02  4.1575142038077145e-01  4.4009378434885787e-01  3.0544881311863847e-02  2.6319698814375524e-02  -4.0172658045639409e-02  1.4474993048639468e-02  1.6200378693676343e-02  2.0253793650170139e-02  2.0221766968038513e-02  7.2454163042099395e-03  1.2634479996503880e-02  -1.1318993095482864e-01  -1.1209379380317958e-01  -5.7465624916892943e-02  -1.3197475338198378e-01  -1.0230432756429980e-01  2.0251942966606790e-01  4.4426083690011003e-01  -3.3845564306085973e-03  -2.5249462664214430e-02  -1.7086938602947627e-01  1.5116238695219632e-02  8.6462865650417838e-03  1.7003963733333377e-02  -3.3031634464472415e-01  -1.5140825651129416e-03  4.7025043437653883e-03  1.1666386363050302e-02  -2.0897998810292021e-01  -2.4188744515648322e-01  -1.5102189738530591e-01  9.9329536927496801e-03  6.9316315964243966e-03  1.4503353847376641e-02  -1.8452104784032414e-03  1.0287777193864190e-02  6.8635874976409657e-03  6.5052236225386665e-03  3.4161948407532812e-03  5.1034066699812627e-03  1.6785257992951184e-02  7.7582858140902615e-03  -4.7961102829818324e-02  2.5152758766868039e-03  -3.4789504840132646e-01  -7.3152183868068293e-02  5.3853035854842706e-03  -1.0679493894902940e-02  -1.0463315108023387e-01  1.2533846366292086e-02  -1.6213457832653552e-01  -7.9152441700543530e-02  -4.3150602526357777e-03  -1.4279108899513185e-01  -1.7799674558576642e-01  5.0813831860070822e-03  -3.4530195563068766e-01  -3.6743563492552445e-01  1.7400460769668051e-02  3.3447638461746212e-02  6.3571060270393321e-03  1.4478132405645440e-02  -4.1454363541354622e-02  -9.5131527333836517e-04  1.8814955736010280e-03  2.2185996127249627e-02  1.3515367098493394e-02  4.7150188563642881e-01  -7.1901505341447347e-02  -1.8361417432723326e-01  3.2584589952746798e-04  -5.8470948115628328e-02  -1.2350317775004324e-01  1.0149486211569209e-02  -2.4333103293888061e-01  2.4048245804047861e-03  -1.3358862119117121e-01  2.7356425986887731e-02  1.2204102722186241e-02  -1.2708625902402240e-01  -2.4993309164477193e-01  5.9552979517900470e-03  1.0135033698428135e-02  8.3565777858185387e-09  3.2275040807537687e-02  -1.7657724400484266e-03  4.6351195723987076e-01  8.6675797045726154e-03  1.1221991097981789e+00  1.2471501165592723e-02  6.6790760953879978e-03  3.6142086199456115e-02  5.9788847382713083e-04  7.3078983161498573e-03  2.8937186985802821e-02  2.9959751345055505e-02  2.6394692147224039e-02  1.3564607868967366e-02  1.7813965812412409e-02  -2.3779829982264935e-02  -1.3387955723807717e-02  9.7554511648654443e-03  1.1366805682296442e-02  1.2957067754658463e-02  1.5437804032166963e-02  1.4158548952434796e-02  -9.5300453462919474e-02  1.6495667952263815e-02  1.7448439169864681e-02  -1.5405107580050774e-02  -3.3096344969000286e-03  -3.7117673884458476e-02  1.1317137109240448e-02  4.6467546637251061e-01  -5.5057257155366086e-02  2.2519564313812340e-03  -3.6808483582406811e-03  2.3561730562233138e-01  3.2704119758859307e-01  1.5421984736239621e-08  1.0490433089128551e-01  3.4313664093955942e-01  2.5259106690510201e-02  1.6352329020664077e-02  1.3667558198325727e-02  -1.0755279004352299e-01  6.7578235521347407e-01  -7.9179829387666876e-09  -9.5466592462696346e-09  7.0206788965625366e-01  6.2194249182739242e-03  -1.3414722700040724e-01  3.1547996307247889e-02  4.0710552548475715e-01  2.2875678340730519e-04  2.5803373327588471e-02  2.4259634774603907e-02  2.6069275468672076e-02  -8.9504951506149920e-03  1.5149600232703512e-02  -1.8769662728652109e-01  5.3033451722323778e-03  1.9149542319369262e-02  7.0431288756040997e-03  6.4530857005579667e-01  -1.8817807796493866e-01  6.7143148398941999e-01  4.3784798828126097e-03  3.8089479206883581e-01  -5.7164758062620044e-02  2.1239414031564404e-03  -2.6945840453141529e-01  -1.7324536765555371e-02  1.8657352268479584e-02  -3.2654634252152159e-01  -1.9900019211287565e-01  -5.1782635173468867e-04  6.7720147569268465e-03  -2.1208240955564114e-01  -1.8466765393272019e-01  -1.9796767297834672e-01  -2.2217743059907905e-01  -9.8301867386237210e-02  1.1811620336883643e-02  -3.5064066663364202e-01  1.6986291596721780e-02  1.0946123545045459e-02  1.2292565005975959e-02  1.9767457663547386e-02  -1.2525043704541353e-01  1.8387283571654606e-03  -1.3005181630171800e-01  -1.6634557111030784e-01  -1.2182704452759491e-01  1.6094871911347841e-02  -2.1774238427543352e-01  -1.8983833047864165e-01  4.7952897118286337e-03  -2.8848788943595671e-01  -2.3360421836433024e-01  -6.0076441093122809e-03  7.7923573223002453e-03  1.7904961267457838e-02  -4.4074643297114698e-02  1.8413328461819530e-02  -3.4062148185019531e-01  -3.5197636881016120e-01  1.2343466924839085e-02  -3.5702150943757704e-01  9.1005980547323029e-01  -2.7458055014285845e-03  8.4522649931963056e-01  1.6933703755697589e-02  2.2593350802841436e-04  -3.2899880024223879e-02  8.1843127037833918e-03  1.6885183954082700e-02  1.9125438903769745e-02  -2.3838538979968970e-02  2.2684078192342200e-03  2.6667543047984348e-02  -1.5708692051313977e-01  -2.8461108760906795e-01  1.4944743297065617e-02  -6.9340426560533158e-02  1.7275627696396654e-02  9.6783158844218359e-03  9.1816014365347590e-03  1.6617581603045252e-02  1.3892669909790897e-02  -1.9778883951743167e-01  -1.9239901155640490e-01  3.2192096018582875e-02  1.6022385482925696e-02  1.5587278541481569e-02  4.4156609219155605e-03  8.0734874982931019e-03  4.2542584859562027e-01  -2.9766845976997808e-01  -3.2513086510369008e-02  2.4550221337062340e-02  1.3955567199307255e-02  1.8253995186737551e-02  -7.8401436604647073e-02  1.2377303061873141e-02  1.5118123342672127e-02  -5.5851065294386271e-02  2.1407718072145795e-02  3.7070483471327493e-03  2.8331611440284487e-03  2.9918395696116634e-01  1.9269113411248491e-02  -2.0064641806514713e-01  -1.9806215858572579e-01  -1.2446292577438765e-02  2.8762186980356613e-01  7.6881219315188803e-03  -2.7747757986991379e-02  1.2104046988768435e-02  -2.4681494140029062e-01  7.1487502661715992e-03  9.7920763870218679e-03  1.7414037637816328e-02  3.1414592535225112e-02  -2.6557885939857928e-01  -1.6165767277596693e-01  7.1005770875235763e-03  -6.8887093729108851e-03  2.0956585680394536e-02  2.8828499960012574e-03  2.3034165931022425e-02  6.1543928342810686e-03  4.2027463022073702e-01  -1.5739364639698332e-03  -1.4179517961179028e-01  -2.0842351773109041e-01  -1.2217662083809978e-01  7.7889935225904233e-03  -3.3398318128968146e-01  1.1184562047171796e-02  -7.1405476455091571e-02  1.6561629332467069e-02  1.5860025878967968e-02  1.4527600732811100e-02  -2.4044586353732557e-02  1.1502409374997306e-02  1.6317300399818099e-02  1.6500292569724122e-02  1.6583787910956223e-02  4.5589945160624173e-01  4.2827311303142296e-01  1.8443749275782535e-02  2.5309225907634066e-02  -6.9914657208466569e-02  -6.9485152503955913e-02  -1.4690222660209857e-02  -1.0027018023833082e-02  5.6036923420686224e-01  -2.2991812286303021e-01  6.9694420463468132e-01  -1.7193673012667199e-01  1.3301264990935136e-02  -9.6675511048009102e-02  -3.6871389824765170e-02  -2.5338029695670478e-01  1.1329381375752227e-02  7.6626164108585060e-01  -1.8166878648965742e-01  5.5895262434376867e-03  2.1964266120364402e-02  2.5785110096831454e-01  3.0098141927625183e-02  6.0085337838989195e-01  1.1998868324443437e-02  -1.2215927446120954e-01  -3.0070690781281626e-03  9.0778044805099618e-03  1.6117825697281041e-02  2.3670942232556454e-02  2.7686237871962418e-02  2.6756203473959517e-02  -4.6082896897306803e-03  1.6741725207185969e-02  2.6228483727099117e-02  -1.9038737470300035e-01  2.6378472854717955e-03  -2.1726812500276374e-01  -1.5774042456405485e-01  1.8541844723532067e-03  1.5290907964064321e-02  5.3280014204846182e-01  3.0892337240420963e-02  2.0427243088371721e-02  2.3729257318808539e-01  4.3945474173897608e-01  -3.4556688596759443e-02  5.0184807761189321e-01  2.5540832367231408e-02  -6.6999097703885388e-02  1.0197308736515224e-02  -2.0031235461277633e-01  3.2596951072587928e-02  1.5451413006583240e-02  -1.6914166801148073e-01  -5.7003001929705373e-02  1.1948935896933417e-02  9.5407296235237634e-03  2.5278618597447535e-02  1.5903744309087274e-02  -4.5953520584723760e-02  7.3061947520219076e-03  -5.4397392805289463e-05  -2.6251633933786684e-03  9.6985836315141623e-03  -3.3978131549050772e-01  2.5789312025047077e-02  -4.7373685726275682e-03  4.2743906170675822e-03  8.5826119477043321e-03  8.1749295172786098e-03  1.6458037687718589e-02  1.4819188308640286e-02  1.7181789967449321e-02  5.4797640967327666e-03  -4.8540113197035668e-04  -2.0113704922985312e-01  -1.9493939682445474e-01  1.0132472135874709e-01  -7.5797589137728397e-02  -1.1002057072296406e-01  -1.9762985175711223e-01  -1.7256498216826927e-01  1.3667171884044089e+00  -1.8954675890376617e-02  1.5961007483494058e-01  7.0517731875772210e-03  2.0617658129923160e-03  -9.6860079215369701e-05  1.9379645760790659e-03  3.7345109665852692e-03  9.9073784686431188e-03  2.0455930039204671e-02  9.7070595756042957e-03  7.6548791515906479e-03  -3.2373142920977027e-01  -1.9785796130624247e-01  1.2274228383936794e-02  -3.3557586592694233e-01  -2.5934381991540462e-01  1.0273815213348983e-02  -2.8758337859991967e-01  -3.4610531217598883e-01  9.8071697729134374e-03  1.4658781344742199e-02  -2.8054531139803528e-04  2.9189092155459920e-03  1.7326851580999697e-02  3.3798285181046101e-03  -2.1935010309401901e-01  -1.1920661102323659e-03  1.0241189461755918e-02  2.2055331294742967e-02  -4.4036490021331269e-03  2.5594614122184493e-02  3.6781481725893196e-03  7.7971783919428802e-03  2.3689974989127227e-02  2.7087202337828183e-02  3.5631226087284376e-03  -1.5221314160171581e-02  1.4198105968415531e-02  -1.2657332186522455e-01  -4.4079762943952931e-02  -5.0600915569488834e-02  1.2619676846162199e-02  -8.0438647051994782e-03  6.6285790807845005e-03  -1.3399030183716043e-02  -1.8654243590089997e-01  -1.6627822911026144e-01  -1.4328741399009448e-01  3.9273305008482429e-01  1.1382995384348099e-01  -9.6695717356993421e-02  -1.8588741904151448e-01  -1.8784617252490748e-01  -9.8317865566410104e-02  -4.9130251923574217e-02  -1.1283153806375323e-01  -1.5487950968961525e-01  -1.6265406050503894e-01  3.1765008510245664e-03  1.4644917442839250e-02  1.0860788477750381e-02  1.7654250722412317e-02  7.7758889550270695e-03  1.5792878316071759e-02  -2.3078933395634660e-02  8.1808718464706411e-03  -1.5230093757077579e-01  4.0224514548115667e-03  6.4424215349422314e-03  1.8670445066167995e-02  1.6533963486645216e-02  2.1853949917181058e-02  4.6296845570543959e-03  -8.4126266150484616e-02  -5.2726889106204398e-02  -3.1179767166446171e-01  -3.3405667574310671e-01  -1.4753927995514882e-01  1.2295487543730794e-03  -3.0477908448491253e-04  1.8036873971217392e-04  1.0596346234591410e-02  3.9569641279869466e-01  1.1143019109226186e-02  3.3831529760189626e-02  3.0271003792405025e-02  -9.8920831469965581e-02  1.5103878090388509e-02  2.9069058702269807e-01  1.8626803043055706e-02  1.5636644052175928e-02  6.1534791370861383e-03  1.2631755965600526e-02  1.4230818477713157e-03  -1.3893221851786089e-01  5.7088439193690886e-03  -6.5137971046822826e-02  1.6230020656673790e-02  1.7242723156440952e-02  4.6848241329683245e-03  -1.6364351544879868e-01  1.6227298713965450e-02  2.9625673211954074e-02  7.4022545293782915e-01  -1.8412315687827221e-01  -9.7637544502718592e-03  1.3445120398056795e-02  -2.6241871352088864e-01  -6.8384125992754813e-02  7.6301078964378160e-03  8.4376726824066141e-03  2.0304092261169925e-02  8.0385869133266197e-01  7.1734241416761243e-03  1.4491880517983783e-02  1.1197160175741586e-02  1.0870300277480427e-02  3.7099598374767501e-01  1.9755157881165230e-02  3.3214830366803888e-01  -4.4365847179645423e-02  1.8250711697491016e-02  -3.5432893892154860e-01  -3.6128010393416393e-01  1.6145691157572221e-03  -3.5085749353341172e-01  -3.2170064195137300e-02  1.6449603643972908e-03  1.3247620975955374e-02  7.3205320311045654e-03  9.5534456924682206e-03  1.3185080502664365e-03  1.5530037765757929e-03  2.1353806617424153e-03  -2.1012058835089893e-02  8.8404550582821748e-03  -1.9324783542021229e-01  9.5326210433811023e-03  1.6016861615438496e-02  1.2733860072349876e-02  -8.4172623853641604e-02  -1.1826585177881895e-01  -9.1367481770223996e-02  -6.1571302744352338e-02  2.1030245235820842e-02  3.2036551977089101e-02  -2.5702108550440345e-01  -1.7076263376717615e-01  -1.9607739448122405e-01  2.9556206930339439e-02  5.8518545980680825e-01  5.6190422492099958e-03  -2.2980194828469132e-03  -1.0493339092876022e-01  2.7783609898308144e-02  -2.3321033361875793e-01  9.1149259972607595e-03  -3.4386786862701457e-01  -2.4981177085641785e-03  -1.4693210340324761e-01  -1.7611417926590214e-01  -2.0589656746991633e-01  1.5742276741235336e-02  1.3494245196066026e-02  1.2121314341696568e-02  -1.1537443123496942e-03  1.2496844741807895e-02  -9.7102112354250120e-02  1.1255836320254102e+00  -2.8853610181553439e-03  -1.7877098259046161e-02  -3.1999072475570250e-01  4.7608100473173574e-03  9.4128537879911156e-03  1.5139517269014831e-02  1.6582524685522196e-02  -2.8156952180736061e-03  2.6788573785642878e-03  7.8531906293696652e-03  1.4376126670324119e-02  1.6107409624922832e-02  -3.7588380585259130e-02  -5.3662337513284544e-02  4.5897705925156357e-01  4.5723569278311360e-01  7.5033000716792338e-03  -2.7252862548141049e-01  1.7885657052379895e-02  -1.0582949416824739e-02  1.3541285206676884e-02  -1.2686463459553555e-02  5.0073300502685627e-04  1.6325515540611048e-02  6.0553926117129608e-01  -4.7361804460440596e-02  3.4192579838602896e-02  7.3195685668640820e-02  2.4699617356417644e-01  -1.1941584795575752e-01  6.1819827164528570e-03  9.6424747461317992e-04  -2.4267326670685110e-01  -2.1812437157822179e-01  -3.4604068356036610e-01  1.4672914469263021e-02  4.9517953264937324e-03  -2.6113929911869949e-01  4.4164482316580844e-01  7.5372880955920818e-01  8.5445276570764381e-03  -1.4138479211783234e-01  1.5398580577774566e-02  1.0743516569957394e-02  1.4788863332482458e-02  1.0875044931618253e-02  -1.7098133228896934e-08  -2.0833247129769136e-01  2.3895148068106224e-02  4.1286416729829764e-03  -2.1461911190817501e-01  -2.0999626989352516e-01  1.7333686419723434e-02  -1.3585016493293223e-01  3.9232260136244917e-01  3.7718021877258767e-01  1.5494361965913601e-02  1.0633651619722120e-02  2.2655678515279609e-02  2.6862189555011788e-02  2.5152245166197237e-02  2.0927781484311552e-02  8.7102454271271428e-03  -1.7842759467254188e-01  6.6934080814357302e-03  1.8208651547499434e-02  -7.8959449197564743e-03  -1.4099715750955887e-02  -8.2608535910442107e-02  -2.2076166523189866e-01  1.0808477893839021e-02  -1.2429652466538334e-01  4.6586393935810370e-02  3.9277813457794295e-09  6.2965071886473467e-03  4.8633914557091868e-04  2.2796162503129183e-03  -1.4653065853887481e-01  1.4566945493156670e-02  -1.0879444273251312e-02  2.6115417373563199e-03  1.2885528783842243e-02  -1.8594200233951132e-03  -1.3053757489410707e-02  1.7329430440712293e-02  -8.6192987489697778e-03  -9.3647489248752311e-03  -1.5612553182307682e-02  1.2355261597412967e-02  2.6184315007276422e-02  -3.4531554151686336e-02  3.9659396973188138e-01  -1.4683579896089545e-02  1.9728419536866625e-03  -6.1598558451614001e-02  1.4110939408208378e-02  8.2951803993403100e-03  6.2518750703691450e-03  -2.0234987023884055e-01  1.2790089585025928e-02  1.6450844736548752e-02  1.9489381830696515e-02  -2.2002999719851563e-01  2.2258343793326245e-02  1.4453631489907935e-02  1.3864488687379207e-02  -1.8637068604867646e-01  -1.9930779830898449e-01  1.0398569917888227e-02  -2.2210251472102677e-01  -2.5402251342829441e-01  -2.4439358101414677e-01  4.6914847139726216e-03  -2.6768854782270373e-03  1.2769520400648845e-02  -4.1991024336001237e-01  1.0343121028133714e-02  -1.3177985310831714e-01  2.1160615418800086e-02  3.2277984687026912e-01  -4.0296619564509674e-02  -9.6690257816498398e-03  -1.1084181535065457e-01  -1.7098133228896934e-08  1.0805591089471556e+00  8.8114132606974072e-01  -3.0222353128054380e-02  -5.1596987419121006e-02  -1.3442103422473367e-01  3.3051944322691665e-02  2.9225663145036364e-02  -1.2536672141570063e-01  1.5130127146652683e-02  -1.8578719838796043e-01  5.2520477056496484e-01  4.7068790454320314e-01  4.7522746579274699e-01  7.0996158001757096e-03  9.7778586147801647e-03  2.4527558574275722e-02  3.2197463962946350e-02  2.5006748426975877e-02  -1.9746299419558032e-03  5.3143470272107318e-01  1.6256164891186777e-04  -3.7493627577035255e-01  1.3644597538712857e-02  -5.2570592058939526e-05  -4.3021750973547680e-04  1.4415054755237021e-02  1.2849823957502114e-02  -1.9274452557248870e-01  5.2161423552779147e-03 