<?xml version="1.0"?>
<VTKFile type="UnstructuredGrid"  version="0.1"  >
<UnstructuredGrid>
<Piece  NumberOfPoints="2426" NumberOfCells="4534">
<Points>
<DataArray  type="Float64"  NumberOfComponents="3"  format="ascii">0 0.41 0  0 0 0  2.2 0 0  2.2 0.41 0  0.2404508497187474 0.2293892626146237 0  0.25 0.2 0  0.2404508497187474 0.1706107373853764 0  0.2154508497187474 0.1524471741852423 0  0.1845491502812526 0.1524471741852423 0  0.1595491502812526 0.1706107373853764 0  0.15 0.2 0  0.1595491502812526 0.2293892626146237 0  0.1845491502812527 0.2475528258147577 0  0.2154508497187474 0.2475528258147577 0  0.5404508497187474 0.2293892626146237 0  0.55 0.2 0  0.5404508497187474 0.1706107373853764 0  0.5154508497187473 0.1524471741852423 0  0.4845491502812526 0.1524471741852423 0  0.4595491502812526 0.1706107373853764 0  0.45 0.2 0  0.4595491502812526 0.2293892626146237 0  0.4845491502812526 0.2475528258147577 0  0.5154508497187473 0.2475528258147577 0  1.1 0 0  0 0.205 0  1.1 0.41 0  0.55 0 0  0.55 0.41 0  0.275 0 0  0.275 0.41 0  1.65 0.41 0  1.65 0 0  1.375 0 0  1.375 0.41 0  1.925 0 0  1.925 0.41 0  0.8250000000000001 0.41 0  0.8250000000000001 0 0  1.5125 0.205 0  1.7875 0.205 0  0.9625000000000001 0.205 0  1.2375 0.205 0  2.2 0.205 0  0.7560964076246335 0.2151713709677419 0  1.99375 0.2152743902439024 0  2.0625 0 0  0.6875 0 0  2.0625 0.41 0  2.2 0.3075 0  0.6875 0.41 0  1.7875 0.41 0  1.375 0.1486128048780488 0  1.5125 0 0  1.7875 0 0  1.5125 0.41 0  0.9625000000000001 0 0  0.9625000000000001 0.41 0  0.4125 0 0  0.1375 0 0  0.1375 0.41 0  0.4125 0.41 0  1.2375 0 0  1.1 0.1486128048780487 0  1.2375 0.41 0  1.65 0.1486128048780487 0  1.126715909090909 0.2793064024390244 0  1.676715909090909 0.2793064024390244 0  1.348284090909091 0.2793064024390244 0  0.34375 0.3032389320646208 0  1.894702181800738 0.1282910975492754 0  2.092797818199262 0.1282910975492754 0  1.85625 0.3075 0  0.8630851210521902 0.286932093388664 0  0.89375 0.1025 0  0.35 0.1090282786671641 0  0 0.3075 0  0 0.1025 0  0.6526217841291382 0.288229645480046 0  0.7562500000000001 0.09660248895515888 0  0.6568633732316684 0.1557582854763441 0  2.099172119769978 0.25625 0  1.002356446954348 0.1010393851523063 0  1.99375 0.08395950269330846 0  1.459960956013612 0.3075 0  1.569025960719943 0.2986889805672169 0  1.03125 0.3278689922742084 0  0.75625 0.3247156761655783 0  1.959375 0.3126371951219512 0  1.749222215368287 0.1025 0  1.275777784631713 0.1025 0  2.2 0.1025 0  1.225938124459196 0.3075 0  1.550777784631713 0.1025 0  1.44375 0.07430640243902442 0  1.16875 0.07430640243902437 0  0.3528655045338512 0.2063263890916129 0  0.5890337614812103 0.08775733857679162 0  0.8504912436891263 0.190072835691683 0  1.899250267340833 0.2229966846119207 0  0.1020898364287272 0.3140258291809757 0  1.766482954545455 0.2934032012195123 0  1.051658316544432 0.2265720188842194 0  0.2 0.3400647632937836 0  1.421109702350723 0.2261157654379721 0  0.4812500000000001 0.41 0  0.4324401666997539 0.3216425986889796 0  0.098916018031319 0.09171660955420841 0  0.9508742791313441 0.2921736960864468 0  2.13125 0 0  2.118919042110979 0.3422084711244843 0  1.30625 0.41 0  0.20625 0 0  1.597888256393107 0.2173787389261347 0  0.4812500000000001 0 0  0.4324082967851086 0.08384041677422771 0  1.829299675393195 0.07400700849299596 0  0.568219932524165 0.3212274660843853 0  1.71875 0.41 0  0.268005226542646 0.08512186835670006 0  1.16875 0.41 0  2.038220665644273 0.332420740103091 0  0.6678017527842831 0.07701763866051195 0  0.89375 0.41 0  0.5111435174287687 0.07335351331957608 0  0.176193934632343 0.0734896648625108 0  0.07390688010811153 0.1697064032433452 0  0.05452951551825875 0.25625 0  0.61875 0.41 0  1.452769549894695 0.1548122580621249 0  1.369219062229598 0.07430640243902442 0  1.30625 0 0  1.720943423819132 0.1714577452753128 0  1.157188124459196 0.205 0  1.094219062229598 0.07430640243902437 0  1.304056576180868 0.1714577452753128 0  1.67579304192913 0.07430640243902437 0  0.2672907219039591 0.3037570723459566 0  1.209670467133757 0.1362100266964769 0  1.58125 0 0  1.03125 0 0  0.06875000000000001 0.41 0  0 0.35875 0  1.58125 0.41 0  1.631724228912893 0.3381867502687533 0  0.8240147050827157 0.1225233169495944 0  1.825608881788174 0.14499488549201 0  1.85625 0 0  1.44375 0 0  1.44375 0.41 0  1.85625 0.41 0  2.13125 0.41 0  0.7562500000000001 0.41 0  0.7562500000000001 0 0  0.89375 0 0  0.34375 0 0  0.34375 0.41 0  0.20625 0.41 0  0.06875000000000001 0 0  1.16875 0 0  1.03125 0.41 0  0.61875 0 0  1.71875 0 0  1.99375 0 0  1.99375 0.41 0  0.3972301426712326 0.2593842555611471 0  1.340625 0.3489494290853124 0  1.134375 0.3489494290853123 0  1.700180620188976 0.3438659752031281 0  0.5003922072260507 0.341765274319271 0  0.6212513815748759 0.2209216137134851 0  0.6885607720119526 0.215393731583638 0  1.033412357328477 0.1612902025713047 0  2.135782184673599 0.07126652247502523 0  1.668441847249787 0.2129203728327609 0  1.295782514339747 0.2378437748815763 0  1.409375 0.3520314716057996 0  2.129248544730567 0.1906135162504124 0  2.060771381434487 0.1989445750470348 0  2.013252586573865 0.1496169464686054 0  1.942766402200229 0.1734448904596831 0  1.895522487186454 0.06076163953489683 0  2.069553871656643 0.06605731020975725 0  0.9281250000000001 0.3539050257418612 0  1.274680914880868 0.3520219391081363 0  0.3030138498135347 0.2488370856812789 0  0.8223773249563684 0.341761430177996 0  0.9018164060227267 0.2326477848736739 0  0.8143027982392851 0.2440265179987191 0  0.7225087161029304 0.2699907246386231 0  1.614713220494657 0.09473434380863296 0  0.378125 0.3566194660323104 0  0.309375 0.3566194660323104 0  1.72990325744076 0.2380068107952482 0  0.6915936999299305 0.3429472631234433 0  0.6268087624932918 0.3466455500035671 0  1.356580098625191 0.2120393231351682 0  0.3060160055995138 0.1590148921620778 0  0.3954648733249218 0.156380553890791 0  2.034370752044885 0.2668681600792073 0  1.51768709249349 0.3426260931494756 0  1.561883724969884 0.1650446847858835 0  1.197344062229598 0.2523725417393646 0  0.9281250000000001 0.05124999999999999 0  1.804085235518364 0.3468178408964637 0  1.817887819205233 0.2589243285818559 0  0.9107805776841645 0.1653834539923287 0  1.905897727272727 0.3485060975609756 0  0 0.05125 0  0.844212276491354 0.0614201194265309 0  0.378125 0.05244637078450034 0  1.008571329007178 0.2705955969954818 0  0.7724048032149464 0.1559079561351474 0  0.7203054377831548 0.04941826955193545 0  1.192836486056382 0.3562350748565544 0  0.5967108020713719 0.1479294686523888 0  1.28257088594801 0.2944411014911587 0  0.7041890234548132 0.1222025174424443 0  1.474860187679412 0.2504218616229368 0  1.406767003493824 0.2829282258560709 0  0.3201325899091991 0.05890121548989159 0  0.5979220912872258 0.2727591995766724 0  1.845656689180403 0.1998310418452388 0  2.144958525570388 0.2909790873294231 0  2.2 0.15375 0  1.57794966442982 0.3540357145964566 0  0.9483181579620558 0.1214693369582054 0  0.0496154796471391 0.333125 0  1.508991196088596 0.1421783375065625 0  0.09776612425612034 0.2204896805326566 0  1.50436820029908 0.06143401634903343 0  1.223857000523521 0.0823554862453532 0  0.2531953886959507 0.3582003209055908 0  1.153316824384777 0.1289850171317837 0  2.148922302309752 0.1258841779285271 0  1.621993280276081 0.2841214267927899 0  1.550118654119087 0.2461998729100966 0  1.327182649291491 0.1216967252533594 0  1.753125 0.04556020050186112 0  1.271875 0.04556020050186116 0  0.9824282234771738 0.05051969257615314 0  1.039510847866381 0.05683351822678641 0  1.94956388244759 0.1180512551534177 0  1.949997712993411 0.04965831614304109 0  1.771961817615021 0.1530278789497521 0  1.909246823951428 0.2812757146784527 0  1.101974016627944 0.2038045618205013 0  0.7906250000000001 0.0444674049654372 0  1.948575539857022 0.2445328248721197 0  1.697271520964565 0.1233917627620729 0  1.065625 0.3689344961371042 0  1.085849084308977 0.3170853572226867 0  0.9840604787624379 0.3582077516409966 0  1.577403511714593 0.05463601888079143 0  0.05622663515370135 0.05493816910862376 0  0.8762396958822678 0.3392249777398821 0  1.751571320346033 0.3651102912045228 0  1.055327852410105 0.111864799513911 0  0.1583785085108421 0.2994699345738728 0  0.1455283439499995 0.3542795598723423 0  2.2 0.35875 0  0.225705107073232 0.05084786997482401 0  0.1455852234589313 0.1166494778469164 0  1.466879772203159 0.3611261772912453 0  1.990280163552011 0.3564754268533217 0  1.17471064520912 0.2990917256188288 0  0.7221925551074015 0.1739659241003985 0  0 0.25625 0  2.2 0.25625 0  2.2 0.05125 0  0 0.15375 0  1.853978576207987 0.35875 0  0.21965520498276 0.1015543880164422 0  1.515638456102889 0.2882700110184686 0  0.09048297387599738 0.3637717362208066 0  2.150453692751374 0.2387066338105111 0  1.323782677156475 0.04897634338873398 0  1.409375 0.03715320121951221 0  1.406484531114799 0.1087852750766809 0  1.134375 0.03715320121951218 0  1.627401732573545 0.04552157221025036 0  0.446875 0.3713289093361426 0  2.045405893604797 0.1105340662939892 0  1.255408269734577 0.1577307500159216 0  2.028125 0.03707597992059326 0  0.04420832937638274 0.128125 0  0.5817551710628505 0.3702615006034757 0  0.1197849154434487 0.2663398672460083 0  1.248258025468107 0.2565907092181813 0  0.1300647302703173 0.0508462728378621 0  0.7738123537510222 0.2761231499240648 0  1.203125 0.0366132337404304 0  0.5444207041612499 0.111205399508622 0  0.8016457771828226 0.1964238426015905 0  2.072662025974815 0.2975086504196739 0  0.4019040438866802 0.2103993403217561 0  0.4677372330974851 0.04827477407630658 0  0.8677218578847617 0.1432970430140788 0  1.058011122005847 0.2758866204059919 0  0.4429405887974043 0.2746184809910084 0  0.5843750000000001 0.03726989681835222 0  0.6318596133730142 0.1128692182767254 0  0.4862628454464408 0.2957029785303028 0  0.7805186758662764 0.3673578380827891 0  1.887722846421017 0.1760882698830035 0  0.3498893058880703 0.256189258793856 0  1.472640588990488 0.1118278026240017 0  1.865937103925594 0.2604137786483804 0
[...]
<PointData  Scalars="f_43"> 
<DataArray  type="Float64"  Name="f_43"  format="ascii">4.4238045255140296e-01  4.7285377153126612e-01  1.2096521175002058e-09  7.5240742022989621e-10  -3.4200139651963957e-01  -3.0581069802603872e-01  -3.2863881844995269e-01  -4.9610186575552390e-01  -9.1348637243896147e-01  8.8229584825588947e-01  2.0162511805935197e+00  4.1995642542976369e-01  -1.1386019606678954e+00  -4.8906380711807662e-01  -2.5784639651928787e-01  -2.3538873625839599e-01  -2.7284112951941192e-01  -4.4211926062477724e-01  -1.1143063051618013e-01  -8.8848461447068705e-02  -2.7302958037257974e-01  -1.2114775700872112e-01  -5.3058857478741304e-02  -4.9837880062466777e-01  9.0170321574067451e-03  7.8447422360257690e-01  3.9285198864106351e-03  -1.8365083117620151e-01  -1.7760703725128674e-01  1.9809725470510998e-02  4.0777533393641915e-02  2.8926168170636927e-02  3.1268707676050229e-02  2.7880580813845288e-02  3.4361834413215761e-02  1.9054458585221402e-02  1.6165790127095622e-02  -7.3008543801657153e-02  -6.4967840503600618e-02  3.1070655926482810e-02  2.5366804314840539e-02  3.4551361072037684e-02  2.8823948544900214e-02  1.5525285271591132e-09  -4.7902506891625604e-02  9.2906203325306500e-03  1.1058137537511201e-02  -1.3100143750432389e-01  7.7042095594004800e-03  1.0108766529017325e-09  -1.3078989906978955e-01  2.8892747287188703e-02  2.8164077467664188e-02  3.5253252782634151e-02  2.3635276039373238e-02  2.9489880870726615e-02  -2.4561900706838103e-02  -2.2024594798248271e-02  -1.7430555814361010e-01  3.8959840645478350e-01  3.6714965594960214e-01  -1.5634547452143843e-01  2.7774395782237244e-02  2.7716728863221986e-02  1.7431757762772202e-02  3.1473915612837654e-02  1.5321029031706762e-02  2.9852005598776762e-02  3.4651233738452081e-02  -2.3543993640658009e-01  2.0078359164948236e-02  8.8571297986625545e-03  2.3711120925259833e-02  -1.3913159736256266e-02  -1.5934280741945708e-02  -2.7654566188698865e-01  5.3896781991062415e-01  5.7279209620425686e-01  -1.7078841811215104e-01  -7.6782380344292550e-02  -1.8431302318579265e-01  6.8049091067420540e-03  -2.3051451779887147e-03  1.5414640420099102e-02  3.3698267004027019e-02  2.6170338070979841e-02  1.9739478280661415e-03  -9.0264619641005919e-02  1.2059316576331351e-02  2.4446359940785218e-02  2.8822989370126294e-02  -9.7509334585327703e-10  1.7320674808648170e-02  3.5744789118631992e-02  3.0641715954167762e-02  2.4389457969352199e-02  -3.3465898087298446e-01  -2.0191774895061226e-01  2.3526947312534210e-02  1.8211322436402739e-02  4.8242639692339306e-01  3.0352563330173606e-02  2.8489983054532177e-02  1.7084823808886868e-01  3.5004819039961242e-02  -1.7870813592926696e-01  -1.9431757590439325e-01  5.1138676997679744e-01  3.7656774661284725e-03  5.6254449070506666e-03  5.6170066209254785e-03  2.7784669607930922e-02  2.1731704325651385e-01  2.7859086269183080e-02  -1.8898088508213351e-01  -1.9425519418800596e-01  2.1819707652731696e-02  -2.0253915211518567e-01  3.0842701004240990e-02  -1.2949557358516187e-01  9.3882108735493207e-03  7.7394067019072353e-03  -1.4325703756794211e-01  -4.6346182246125217e-02  -2.0391096835570385e-01  2.3399159750020534e-01  9.1695208178449172e-01  7.3950818175297528e-01  -1.5886960898266106e-01  3.2198230898511739e-02  2.6363745556198599e-02  2.7462690319572488e-02  2.6204061217850211e-02  2.6151226759343432e-02  9.5621431575893881e-03  2.8831059422806227e-02  2.9578240666490146e-02  -1.6741303047656464e-01  3.0084466585302110e-02  3.4994167388839710e-02  -8.3101747427524273e-03  4.3021349720168767e-01  4.5455345473829684e-01  2.7181118270278973e-02  2.7017230069906435e-02  -1.9804636668235429e-02  2.1580125391125988e-02  2.1545925836626640e-02  3.1582767843853395e-02  3.3979184711597263e-02  2.3202748990870204e-02  4.6812847710066855e-03  -1.0114624672627547e-01  -9.6125448015030743e-02  -4.1512505497315694e-02  -1.1817839096571529e-01  -8.7511956028020477e-02  2.1706416124801731e-01  4.5853649167664590e-01  2.2501089103752842e-02  -4.8141415829551937e-03  -1.6061326369195150e-01  2.6854328132499709e-02  1.5421704724737466e-02  1.0642617382914490e-02  -3.1759307272340687e-01  3.2646939630534999e-02  7.0429277442504573e-03  3.0773835672992349e-02  -1.9205631093613554e-01  -2.2071774498005611e-01  -1.3633283551299746e-01  2.5047939410728561e-02  5.3615591553432297e-03  2.9557214985724733e-02  3.3315996567463250e-02  3.6041788135951082e-02  5.0382103611527262e-03  8.2933586777323431e-03  1.4037871107603345e-02  1.7019556822863831e-02  2.0321943412916408e-02  1.0815590066108766e-02  -3.0625388059909536e-02  2.2567368384913824e-02  -3.3376517678879603e-01  -6.5692634342352313e-02  3.2868247389126290e-02  -6.9799839679611057e-03  -1.0098908725454397e-01  3.3927539830462233e-02  -1.4725399986441007e-01  -6.4551769267795406e-02  3.0729259369470959e-02  -1.2715635101822426e-01  -1.6020043894296418e-01  3.3944149484787918e-02  -3.3054960565629615e-01  -3.5150414202641467e-01  8.1003830544051202e-03  2.8576869322573115e-02  3.4704822935283042e-02  2.1886705147541052e-02  -3.0163596659118115e-02  2.8414089133577770e-02  2.7162469069459398e-02  2.3791470756854668e-02  1.7886877420635102e-02  4.8578196630370124e-01  -5.0638576422670944e-02  -1.6994622748465335e-01  1.9920669371778693e-02  -2.7628400215484378e-02  -1.1030461178013816e-01  1.0879473773943632e-02  -2.3779532543727117e-01  2.6825489069618808e-02  -1.1423874598193688e-01  3.1264160966492809e-02  3.5490718242624127e-02  -1.1298928996023574e-01  -2.2753949604972490e-01  2.2077675905654976e-02  4.3170237084555847e-03  -8.6123692036784323e-10  2.5972046148734766e-02  2.4569565384996309e-03  4.7796642718773658e-01  3.4751227430559334e-02  1.1365918378279674e+00  3.5135626133308770e-02  2.9212498446296059e-02  5.0715057841095847e-02  2.7684076141421501e-02  4.0847918186624962e-03  2.7301207245523984e-02  2.6805209570563766e-02  2.7363989013372385e-02  2.4634637303882996e-02  2.8078061186319062e-02  -1.9095020426811004e-02  -5.8289898700126840e-03  1.7708530870860831e-02  1.7870824777978939e-02  2.2829670504948746e-02  1.7336896483358479e-02  2.7102306723158449e-02  -7.6134041176445302e-02  1.2001598554445275e-02  2.7952870002450024e-02  1.3407053893318035e-03  8.2562502760939755e-03  -1.3164888505578180e-02  3.5509030112085796e-02  4.7895601755709427e-01  -4.4745850239945248e-02  3.0854329310025470e-02  1.0750272274310956e-02  2.5010508428904882e-01  3.4152791220399054e-01  -5.1498106705766106e-09  1.1905847663221096e-01  3.5740101333240798e-01  3.2869045277896899e-02  1.0219204331459975e-02  1.3869297106366356e-02  -8.5488196450236031e-02  6.9019688890772357e-01  1.0108766529017325e-09  1.0012439279604833e-09  7.1639783745136953e-01  2.3624949262770104e-02  -1.1994168346108085e-01  2.8828935298192370e-02  4.2156904385153143e-01  4.5323986647204280e-03  2.6686319047239657e-02  2.8787629338849454e-02  2.8498341536432530e-02  1.6686758976052960e-02  3.2862689637844403e-02  -1.7206593235544615e-01  1.2353717236797937e-02  2.9934481220289928e-02  1.3379325737868215e-02  6.5961980754617344e-01  -1.7082594655513247e-01  6.8587611212157884e-01  2.7307515832553225e-02  3.9515095427313923e-01  -5.5654559509233321e-02  2.6588840303591807e-02  -2.5984138508711846e-01  -3.9219960699507576e-04  6.9093078692274799e-03  -3.1266325732200767e-01  -1.8675425772859644e-01  8.8475006198926107e-03  1.6830914018461100e-02  -1.9444099731919304e-01  -1.7420489988889720e-01  -1.8995964442805011e-01  -2.0299385166791811e-01  -8.8272798361973451e-02  1.9706923887176729e-02  -3.3805097640103343e-01  3.2945063142293417e-02  2.2219968135768917e-02  1.7973824481709311e-02  3.2449922774972176e-02  -1.1072414078097798e-01  3.6088545661130976e-02  -1.1575845407455740e-01  -1.5637709865791888e-01  -1.0811502925536728e-01  3.1425617529647745e-02  -2.0578769051019677e-01  -1.7972494088895821e-01  3.0858013289196233e-02  -2.6874553937140550e-01  -2.1909788515697831e-01  2.9958096344505938e-02  7.8796073803623998e-03  3.0506693853524641e-02  -3.6469661482325832e-02  8.9789420436619527e-03  -3.2630757896663981e-01  -3.3777486375885318e-01  3.4135726415553569e-02  -3.4113618037154370e-01  9.2437113289692374e-01  2.7859415853163132e-02  8.5960346212595751e-01  9.4036263456156646e-03  1.7822278837831492e-02  -1.4825554879138534e-02  3.1391718637044700e-03  6.3406773607226899e-03  7.0678174785586854e-03  4.2699496504421987e-04  3.0392501715654205e-02  2.7667499583694782e-02  -1.3991575487725200e-01  -2.7012903724944892e-01  2.2609015545111889e-02  -5.9558330345201013e-02  8.7043421475032877e-03  3.6409535758100721e-02  3.1073217873746211e-02  3.3670499537075384e-02  3.1054287493982542e-02  -1.8093487014962120e-01  -1.7937274523481880e-01  2.7867391425530529e-02  2.9056921625199076e-02  2.7267355305589502e-02  3.2506078317820299e-03  3.0649414735861571e-03  4.3988683588351357e-01  -2.8286690298825717e-01  -1.8441988006954655e-02  2.8486767111751569e-02  2.2950563938080953e-02  2.0968127364034330e-02  -5.7212182233492344e-02  3.5670014253143853e-02  1.3856629625488158e-02  -3.8087488893345359e-02  2.0867158497764108e-02  2.6373677956761623e-02  3.1443226476424120e-02  3.1339417427250238e-01  2.9125587248334282e-02  -1.8898495251729028e-01  -1.8694088229599587e-01  2.7544040662879493e-03  3.0213405111559638e-01  1.1310710642756660e-02  -5.0526929272120139e-03  2.9713267156112465e-02  -2.2827308321038403e-01  1.6195460544873010e-02  8.0147532772727216e-03  3.2886899335073744e-02  2.6877753448439866e-02  -2.4569237830138632e-01  -1.4806468419414962e-01  2.8326738126146701e-02  1.9931829060321600e-02  1.9598038438139301e-02  3.0566005308052663e-02  2.2572612337741632e-02  2.1782850778512947e-03  4.3454092098832720e-01  3.0915519729661251e-02  -1.3091169717278142e-01  -1.8932628077813554e-01  -1.1119740327899556e-01  1.5700779277685969e-02  -3.1938092354319453e-01  1.9623865434240315e-02  -5.2255392809116417e-02  2.1445964824296102e-02  2.0469398925482496e-02  1.8911308758744798e-02  -1.7744048869844188e-02  3.5061022380237603e-02  2.6788546004638508e-02  3.0239157962656131e-02  3.1343469582008253e-02  4.7017763167497734e-01  4.4273378883211723e-01  8.3431193801307979e-03  2.9885841002857440e-02  -6.1496604648779894e-02  -5.5539592308455246e-02  7.7024393632276851e-03  1.7459945689515359e-02  5.7481055781709489e-01  -2.2267045426518603e-01  7.1125272156757213e-01  -1.5764379173493170e-01  2.3146879595868176e-02  -6.9631684518072695e-02  -1.4366621963297965e-02  -2.3995875083951648e-01  3.3396442060146164e-02  7.8060054778517451e-01  -1.6743681468164545e-01  1.3209889785564151e-02  3.3662936388225886e-02  2.7236751295982375e-01  2.8451615801639216e-02  6.1528507433907942e-01  3.5640116249126400e-02  -1.0608711387065414e-01  2.7056058678826031e-02  3.0833235898497891e-02  2.5265685228550747e-02  2.8085979602980000e-02  2.7198992110653450e-02  2.6881298873400915e-02  1.6789406193613299e-02  2.8830986772109320e-02  2.7578721632158097e-02  -1.7866684365992380e-01  1.6350018996624523e-02  -1.9408910559221276e-01  -1.4727922091847764e-01  2.8283933124533443e-02  2.9573034763544771e-02  5.4709176454373065e-01  2.5755279669347538e-02  2.8843137837222584e-02  2.5148601401746867e-01  4.5372975786601988e-01  -1.2346018876495148e-02  5.1613440844578851e-01  2.7560056831144975e-02  -4.1932925323327132e-02  3.2684721867042368e-02  -1.8850270638533548e-01  2.8281932323739514e-02  2.2555033609959391e-02  -1.5725807062439559e-01  -4.4713703028442228e-02  7.5409006658757579e-03  7.8083077229249296e-03  2.7194878324035446e-02  6.0476187676964969e-03  -2.7427525255557902e-02  6.1221764197706982e-03  2.6812361912615739e-03  3.0641143750565179e-02  3.6187245351004302e-02  -3.2537592594325027e-01  2.8023157027399798e-02  5.0328970921286803e-03  2.8307594087076489e-03  6.9502262897437762e-03  1.2673035760874276e-02  5.8271287971975181e-03  2.5128776808451696e-02  2.1074444160058624e-02  2.2180064314545236e-02  1.4052861554905219e-02  -1.8468765999470974e-01  -1.7888470413978502e-01  1.1543792643432180e-01  -6.8210620196310676e-02  -9.4178412799469452e-02  -1.8118730192946303e-01  -1.5736185507676428e-01  1.3810719236586257e+00  -1.2944670842491441e-02  1.7416257023414697e-01  8.3476491146957967e-03  6.6760446364239698e-03  2.7996737076096474e-02  3.1856475659585951e-02  3.4852069898749408e-02  1.0431996709823208e-02  3.1015086258061444e-02  5.9707052307949185e-03  1.2965551598612467e-02  -3.0890326157396891e-01  -1.8508468155080360e-01  2.1028488921874526e-02  -3.2117035295058227e-01  -2.4960593930942157e-01  2.8064800564412833e-02  -2.7249772579137388e-01  -3.3332771652449628e-01  3.6495772519074855e-02  3.0179526448773347e-02  1.3191308435300862e-02  1.0965004472280665e-02  1.2004143422106647e-02  2.2608842489095268e-02  -2.0894230388078727e-01  5.4241976598834226e-03  1.5081011503075108e-02  2.2365368783254201e-02  2.2714353685471016e-02  2.7238253503828736e-02  2.7684627348027917e-03  8.4391144109466076e-03  2.9387609474032621e-02  3.1876357512706531e-02  3.0508627120555128e-02  5.1179660766567051e-04  2.4992336627719026e-02  -1.1317178122426633e-01  -3.2488078141020393e-02  -3.3439426819216925e-02  3.4964099388492112e-02  1.6580145346021865e-02  2.5945514760084892e-03  4.1907374169728140e-04  -1.7098558506951930e-01  -1.5272353894068114e-01  -1.2831251530387006e-01  4.0720279034380508e-01  1.2840979262637234e-01  -8.6820792502024513e-02  -1.7534735869993395e-01  -1.7056579914760386e-01  -7.9842839938852911e-02  -3.4436678214832789e-02  -9.8080569815013008e-02  -1.4039144959030261e-01  -1.4554860919975829e-01  2.6103845953040269e-02  3.3404682679678534e-02  1.7343044655124880e-02  2.7908794926459625e-02  1.3349873932682456e-02  1.3138831663343710e-02  -1.6611218538959978e-02  3.0924510996948946e-02  -1.3788619712560585e-01  1.4331739780699926e-02  3.7101814072271568e-02  3.4029772358947386e-02  3.2069229012006845e-02  3.0958909860800302e-02  3.1505550014908346e-02  -7.5673164383407557e-02  -4.3510702636696388e-02  -2.9887822906880018e-01  -3.2054802986938014e-01  -1.3154892401483667e-01  1.2939947640613219e-02  3.5627824588339109e-02  3.2508276279089331e-02  3.3056383237556650e-02  4.0996027983497302e-01  9.6181375386594319e-03  2.7135003814087802e-02  3.0725145888920332e-02  -8.7719121008855275e-02  1.9769255055155054e-02  3.0516418938421064e-01  3.5012495983386620e-02  3.4886465356806534e-02  3.0939372401689928e-02  1.9610381766430332e-02  2.3245454067256071e-02  -1.2314873305371399e-01  2.9296428788789734e-02  -5.0609297140532403e-02  2.1625113794089747e-02  2.9900891273288124e-02  3.2316817271106260e-02  -1.4670322415847334e-01  1.5680755696326605e-02  3.0602908734432530e-02  7.5461996690754618e-01  -1.7462213405853128e-01  1.4263896427995177e-02  3.4368944131659467e-02  -2.4739928103039843e-01  -4.8755991439480777e-02  1.1184717861306400e-02  9.6672532101824311e-03  2.8870813812647205e-02  8.1827928565633790e-01  1.7950418756225120e-02  2.8690487205455435e-02  1.6439287394363514e-02  1.9126643080061092e-02  3.8547160843753614e-01  6.7124992922051787e-03  3.4637867262334004e-01  -2.3964514601203218e-02  7.4843897087884413e-03  -3.3806942871066908e-01  -3.4606410286889366e-01  2.7890958716660849e-02  -3.3726910110423564e-01  -2.1451315611251347e-02  2.5926338633924365e-02  3.0392776532129111e-02  2.4685400737188123e-02  1.7266327581038955e-02  6.3271066760791162e-03  2.8926345539803879e-03  1.1565436520581665e-02  -2.1054465585811012e-02  3.5067192876055080e-02  -1.7805283204096292e-01  3.5480369700397044e-02  3.2064343566145716e-02  1.7799811572271854e-02  -6.3585532020396948e-02  -1.1157229691471876e-01  -8.5823376700084289e-02  -6.4439153125366480e-02  2.7173967706849714e-02  2.7006500455216062e-02  -2.4722668142099252e-01  -1.5326071661248347e-01  -1.7807566288306714e-01  2.6801415971541384e-02  5.9947515847986443e-01  3.3538995676082518e-02  1.2323305365976919e-02  -9.1045637820444600e-02  2.6514383232257983e-02  -2.1894633106160502e-01  2.1448254604237094e-02  -3.2837487903907553e-01  2.4282801430460275e-02  -1.3324447987482765e-01  -1.6272458035556350e-01  -1.9256681058275690e-01  1.4016607321568118e-02  3.1080076919019241e-02  3.5464643047487442e-02  2.6716313352706290e-02  1.2818533855040441e-02  -7.8293448022086487e-02  1.1400056828146374e+00  3.0786278194145124e-02  -6.2739933878584210e-03  -3.0019553741148158e-01  2.9814150266586514e-02  2.1871615266444502e-02  3.0387116349768248e-02  3.3289282866510471e-02  2.8857209487770267e-02  2.5491677659204563e-02  7.0589330358472079e-03  3.4604116649652863e-02  1.1772337479625238e-02  -2.8225179822723049e-02  -3.8168927697268790e-02  4.7325476063207722e-01  4.7151380076025717e-01  3.5178678408054526e-02  -2.5833548376966187e-01  2.0111073933289297e-02  1.3558239588837978e-02  2.7065169599394520e-02  8.9303210414947345e-03  2.6039613235430446e-02  2.5970971045149886e-02  6.1998082856487302e-01  -2.5040600309074339e-02  2.6562844768732333e-02  8.7710492989576977e-02  2.6149753590706792e-01  -1.0490757006887370e-01  1.6046491233366940e-02  3.2372015575413644e-02  -2.3425673445567843e-01  -2.1408519676816948e-01  -3.3107035861726419e-01  2.8990984396758852e-02  2.4882764273210314e-02  -2.5124880493017926e-01  4.5592057493337051e-01  7.6812791976150230e-01  8.4777679433816495e-03  -1.2741005328364913e-01  2.2168966158505866e-02  2.5440181552610130e-02  3.2724963815537467e-02  2.0993405985184149e-02  1.5525285271591132e-09  -1.9078578583871242e-01  2.8891296309033768e-02  2.7648195446866295e-03  -1.9716987736596514e-01  -1.8886475579510817e-01  7.5098276221503592e-03  -1.2349566191407486e-01  4.0679072019558010e-01  3.9165245695999634e-01  1.8459527105901839e-02  3.5074579886295941e-02  3.3398224662327655e-02  3.1798273122528802e-02  3.0381591522681047e-02  3.0953590791635583e-02  2.2079084419894521e-02  -1.6438836149515601e-01  3.5773984691287987e-02  3.5040557205214096e-02  8.8221928181140118e-03  3.7201274270703450e-03  -6.1378186004984278e-02  -2.0621228679572717e-01  2.0423223843013927e-02  -1.1011333137694260e-01  6.0670408988459670e-02  -9.7509334585327703e-10  2.3444815050069276e-02  3.0232006238608077e-02  2.3660805105322591e-02  -1.3262591770763724e-01  2.5733715438014095e-02  1.0320215030920378e-02  8.1010598112971031e-03  1.3585050983707948e-02  3.2423425963740921e-03  -5.5822902241070248e-03  9.7242826032665867e-03  -1.4122382578972907e-03  2.7887624272992929e-03  -1.1729444234307803e-02  3.3721349272113697e-02  2.7374497463092957e-02  -1.4374893381080091e-02  4.1085179181405973e-01  -4.3068778089775089e-03  2.9876630836987238e-02  -4.0958642120028532e-02  4.7885349130287573e-03  5.4719727533599763e-03  2.4329505900161212e-03  -1.9100701800321213e-01  2.1506648412620639e-02  9.8563889812845144e-03  2.2076801288114251e-02  -2.1268867569552963e-01  2.7401331252956712e-02  2.5774627970380753e-02  2.3959471667660829e-02  -1.7644674686901538e-01  -1.8907781586760031e-01  3.4612350565859963e-02  -2.0015401240473693e-01  -2.2985796604634640e-01  -2.2441492614629102e-01  2.9152067528534921e-02  2.5732583700999841e-02  3.0433327345425337e-02  -4.0569509208649590e-01  1.3647491378481903e-02  -1.1963509314421535e-01  2.7997703480177393e-02  3.3727490447490105e-01  -1.3456875221277200e-02  1.6257448570377305e-02  -9.4659260991248981e-02  1.5525285271591132e-09  1.0949223338982077e+00  8.9553835189651354e-01  -5.3877404578728597e-03  -3.5566122551214559e-02  -1.2434363031509486e-01  2.5570628916195118e-02  2.6347560784301415e-02  -1.1182260872753898e-01  1.9126926587416087e-02  -1.6772995106381475e-01  5.3964968041857941e-01  4.8514227034725327e-01  4.8968026830228290e-01  1.8094470162684159e-02  7.0725299993931586e-03  2.8122620175537207e-02  2.6734673870568160e-02  2.6616461947960891e-02  3.3925646509364554e-02  5.4571936924805531e-01  2.7701152737484854e-02  -3.6037822423441790e-01  3.3195086479574316e-02  2.3278582820403734e-02  2.9912630703875821e-02  1.9183693351631861e-02  1.8531133101538377e-02  -1.7821320509599689e-01  3.1376376784636360e-02  -1.8714768415078392e-01  2.3856197050430114e-02  1.096162399301