<?xml version="1.0"?>
<VTKFile type="UnstructuredGrid"  version="0.1"  >
<UnstructuredGrid>
<Piece  NumberOfPoints="2426" NumberOfCells="4534">
<Points>
<DataArray  type="Float64"  NumberOfComponents="3"  format="ascii">0 0.41 0  0 0 0  2.2 0 0  2.2 0.41 0  0.2404508497187474 0.2293892626146237 0  0.25 0.2 0  0.2404508497187474 0.1706107373853764 0  0.2154508497187474 0.1524471741852423 0  0.1845491502812526 0.1524471741852423 0  0.1595491502812526 0.1706107373853764 0  0.15 0.2 0  0.1595491502812526 0.2293892626146237 0  0.1845491502812527 0.2475528258147577 0  0.2154508497187474 0.2475528258147577 0  0.5404508497187474 0.2293892626146237 0  0.55 0.2 0  0.5404508497187474 0.1706107373853764 0  0.5154508497187473 0.1524471741852423 0  0.4845491502812526 0.1524471741852423 0  0.4595491502812526 0.1706107373853764 0  0.45 0.2 0  0.4595491502812526 0.2293892626146237 0  0.4845491502812526 0.2475528258147577 0  0.5154508497187473 0.2475528258147577 0  1.1 0 0  0 0.205 0  1.1 0.41 0  0.55 0 0  0.55 0.41 0  0.275 0 0  0.275 0.41 0  1.65 0.41 0  1.65 0 0  1.375 0 0  1.375 0.41 0  1.925 0 0  1.925 0.41 0  0.8250000000000001 0.41 0  0.8250000000000001 0 0  1.5125 0.205 0  1.7875 0.205 0  0.9625000000000001 0.205 0  1.2375 0.205 0  2.2 0.205 0  0.7560964076246335 0.2151713709677419 0  1.99375 0.2152743902439024 0  2.0625 0 0  0.6875 0 0  2.0625 0.41 0  2.2 0.3075 0  0.6875 0.41 0  1.7875 0.41 0  1.375 0.1486128048780488 0  1.5125 0 0  1.7875 0 0  1.5125 0.41 0  0.9625000000000001 0 0  0.9625000000000001 0.41 0  0.4125 0 0  0.1375 0 0  0.1375 0.41 0  0.4125 0.41 0  1.2375 0 0  1.1 0.1486128048780487 0  1.2375 0.41 0  1.65 0.1486128048780487 0  1.126715909090909 0.2793064024390244 0  1.676715909090909 0.2793064024390244 0  1.348284090909091 0.2793064024390244 0  0.34375 0.3032389320646208 0  1.894702181800738 0.1282910975492754 0  2.092797818199262 0.1282910975492754 0  1.85625 0.3075 0  0.8630851210521902 0.286932093388664 0  0.89375 0.1025 0  0.35 0.1090282786671641 0  0 0.3075 0  0 0.1025 0  0.6526217841291382 0.288229645480046 0  0.7562500000000001 0.09660248895515888 0  0.6568633732316684 0.1557582854763441 0  2.099172119769978 0.25625 0  1.002356446954348 0.1010393851523063 0  1.99375 0.08395950269330846 0  1.459960956013612 0.3075 0  1.569025960719943 0.2986889805672169 0  1.03125 0.3278689922742084 0  0.75625 0.3247156761655783 0  1.959375 0.3126371951219512 0  1.749222215368287 0.1025 0  1.275777784631713 0.1025 0  2.2 0.1025 0  1.225938124459196 0.3075 0  1.550777784631713 0.1025 0  1.44375 0.07430640243902442 0  1.16875 0.07430640243902437 0  0.3528655045338512 0.2063263890916129 0  0.5890337614812103 0.08775733857679162 0  0.8504912436891263 0.190072835691683 0  1.899250267340833 0.2229966846119207 0  0.1020898364287272 0.3140258291809757 0  1.766482954545455 0.2934032012195123 0  1.051658316544432 0.2265720188842194 0  0.2 0.3400647632937836 0  1.421109702350723 0.2261157654379721 0  0.4812500000000001 0.41 0  0.4324401666997539 0.3216425986889796 0  0.098916018031319 0.09171660955420841 0  0.9508742791313441 0.2921736960864468 0  2.13125 0 0  2.118919042110979 0.3422084711244843 0  1.30625 0.41 0  0.20625 0 0  1.597888256393107 0.2173787389261347 0  0.4812500000000001 0 0  0.4324082967851086 0.08384041677422771 0  1.829299675393195 0.07400700849299596 0  0.568219932524165 0.3212274660843853 0  1.71875 0.41 0  0.268005226542646 0.08512186835670006 0  1.16875 0.41 0  2.038220665644273 0.332420740103091 0  0.6678017527842831 0.07701763866051195 0  0.89375 0.41 0  0.5111435174287687 0.07335351331957608 0  0.176193934632343 0.0734896648625108 0  0.07390688010811153 0.1697064032433452 0  0.05452951551825875 0.25625 0  0.61875 0.41 0  1.452769549894695 0.1548122580621249 0  1.369219062229598 0.07430640243902442 0  1.30625 0 0  1.720943423819132 0.1714577452753128 0  1.157188124459196 0.205 0  1.094219062229598 0.07430640243902437 0  1.304056576180868 0.1714577452753128 0  1.67579304192913 0.07430640243902437 0  0.2672907219039591 0.3037570723459566 0  1.209670467133757 0.1362100266964769 0  1.58125 0 0  1.03125 0 0  0.06875000000000001 0.41 0  0 0.35875 0  1.58125 0.41 0  1.631724228912893 0.3381867502687533 0  0.8240147050827157 0.1225233169495944 0  1.825608881788174 0.14499488549201 0  1.85625 0 0  1.44375 0 0  1.44375 0.41 0  1.85625 0.41 0  2.13125 0.41 0  0.7562500000000001 0.41 0  0.7562500000000001 0 0  0.89375 0 0  0.34375 0 0  0.34375 0.41 0  0.20625 0.41 0  0.06875000000000001 0 0  1.16875 0 0  1.03125 0.41 0  0.61875 0 0  1.71875 0 0  1.99375 0 0  1.99375 0.41 0  0.3972301426712326 0.2593842555611471 0  1.340625 0.3489494290853124 0  1.134375 0.3489494290853123 0  1.700180620188976 0.3438659752031281 0  0.5003922072260507 0.341765274319271 0  0.6212513815748759 0.2209216137134851 0  0.6885607720119526 0.215393731583638 0  1.033412357328477 0.1612902025713047 0  2.135782184673599 0.07126652247502523 0  1.668441847249787 0.2129203728327609 0  1.295782514339747 0.2378437748815763 0  1.409375 0.3520314716057996 0  2.129248544730567 0.1906135162504124 0  2.060771381434487 0.1989445750470348 0  2.013252586573865 0.1496169464686054 0  1.942766402200229 0.1734448904596831 0  1.895522487186454 0.06076163953489683 0  2.069553871656643 0.06605731020975725 0  0.9281250000000001 0.3539050257418612 0  1.274680914880868 0.3520219391081363 0  0.3030138498135347 0.2488370856812789 0  0.8223773249563684 0.341761430177996 0  0.9018164060227267 0.2326477848736739 0  0.8143027982392851 0.2440265179987191 0  0.7225087161029304 0.2699907246386231 0  1.614713220494657 0.09473434380863296 0  0.378125 0.3566194660323104 0  0.309375 0.3566194660323104 0  1.72990325744076 0.2380068107952482 0  0.6915936999299305 0.3429472631234433 0  0.6268087624932918 0.3466455500035671 0  1.356580098625191 0.2120393231351682 0  0.3060160055995138 0.1590148921620778 0  0.3954648733249218 0.156380553890791 0  2.034370752044885 0.2668681600792073 0  1.51768709249349 0.3426260931494756 0  1.561883724969884 0.1650446847858835 0  1.197344062229598 0.2523725417393646 0  0.9281250000000001 0.05124999999999999 0  1.804085235518364 0.3468178408964637 0  1.817887819205233 0.2589243285818559 0  0.9107805776841645 0.1653834539923287 0  1.905897727272727 0.3485060975609756 0  0 0.05125 0  0.844212276491354 0.0614201194265309 0  0.378125 0.05244637078450034 0  1.008571329007178 0.2705955969954818 0  0.7724048032149464 0.1559079561351474 0  0.7203054377831548 0.04941826955193545 0  1.192836486056382 0.3562350748565544 0  0.5967108020713719 0.1479294686523888 0  1.28257088594801 0.2944411014911587 0  0.7041890234548132 0.1222025174424443 0  1.474860187679412 0.2504218616229368 0  1.406767003493824 0.2829282258560709 0  0.3201325899091991 0.05890121548989159 0  0.5979220912872258 0.2727591995766724 0  1.845656689180403 0.1998310418452388 0  2.144958525570388 0.2909790873294231 0  2.2 0.15375 0  1.57794966442982 0.3540357145964566 0  0.9483181579620558 0.1214693369582054 0  0.0496154796471391 0.333125 0  1.508991196088596 0.1421783375065625 0  0.09776612425612034 0.2204896805326566 0  1.50436820029908 0.06143401634903343 0  1.223857000523521 0.0823554862453532 0  0.2531953886959507 0.3582003209055908 0  1.153316824384777 0.1289850171317837 0  2.148922302309752 0.1258841779285271 0  1.621993280276081 0.2841214267927899 0  1.550118654119087 0.2461998729100966 0  1.327182649291491 0.1216967252533594 0  1.753125 0.04556020050186112 0  1.271875 0.04556020050186116 0  0.9824282234771738 0.05051969257615314 0  1.039510847866381 0.05683351822678641 0  1.94956388244759 0.1180512551534177 0  1.949997712993411 0.04965831614304109 0  1.771961817615021 0.1530278789497521 0  1.909246823951428 0.2812757146784527 0  1.101974016627944 0.2038045618205013 0  0.7906250000000001 0.0444674049654372 0  1.948575539857022 0.2445328248721197 0  1.697271520964565 0.1233917627620729 0  1.065625 0.3689344961371042 0  1.085849084308977 0.3170853572226867 0  0.9840604787624379 0.3582077516409966 0  1.577403511714593 0.05463601888079143 0  0.05622663515370135 0.05493816910862376 0  0.8762396958822678 0.3392249777398821 0  1.751571320346033 0.3651102912045228 0  1.055327852410105 0.111864799513911 0  0.1583785085108421 0.2994699345738728 0  0.1455283439499995 0.3542795598723423 0  2.2 0.35875 0  0.225705107073232 0.05084786997482401 0  0.1455852234589313 0.1166494778469164 0  1.466879772203159 0.3611261772912453 0  1.990280163552011 0.3564754268533217 0  1.17471064520912 0.2990917256188288 0  0.7221925551074015 0.1739659241003985 0  0 0.25625 0  2.2 0.25625 0  2.2 0.05125 0  0 0.15375 0  1.853978576207987 0.35875 0  0.21965520498276 0.1015543880164422 0  1.515638456102889 0.2882700110184686 0  0.09048297387599738 0.3637717362208066 0  2.150453692751374 0.2387066338105111 0  1.323782677156475 0.04897634338873398 0  1.409375 0.03715320121951221 0  1.406484531114799 0.1087852750766809 0  1.134375 0.03715320121951218 0  1.627401732573545 0.04552157221025036 0  0.446875 0.3713289093361426 0  2.045405893604797 0.1105340662939892 0  1.255408269734577 0.1577307500159216 0  2.028125 0.03707597992059326 0  0.04420832937638274 0.128125 0  0.5817551710628505 0.3702615006034757 0  0.1197849154434487 0.2663398672460083 0  1.248258025468107 0.2565907092181813 0  0.1300647302703173 0.0508462728378621 0  0.7738123537510222 0.2761231499240648 0  1.203125 0.0366132337404304 0  0.5444207041612499 0.111205399508622 0  0.8016457771828226 0.1964238426015905 0  2.072662025974815 0.2975086504196739 0  0.4019040438866802 0.2103993403217561 0  0.4677372330974851 0.04827477407630658 0  0.8677218578847617 0.1432970430140788 0  1.058011122005847 0.2758866204059919 0  0.4429405887974043 0.2746184809910084 0  0.5843750000000001 0.03726989681835222 0  0.6318596133730142 0.1128692182767254 0  0.4862628454464408 0.2957029785303028 0  0.7805186758662764 0.3673578380827891 0  1.887722846421017 0.1760882698830035 0  0.3498893058880703 0.256189258793856 0  1.472640588990488 0.1118278026240017 0  1.865937103925594 0.2604137786483804 0
[...]
<PointData  Vectors="f_37"> 
<DataArray  type="Float64"  Name="f_37"  NumberOfComponents="3" format="ascii">-6.0501963345090665e-07 1.9986953987844201e-08 0.0000000000000000e+00  3.6679342772288461e-07 -3.1267730852280117e-08 0.0000000000000000e+00  -4.4122818781228509e-07 -2.3029929323380977e-09 0.0000000000000000e+00  1.5739660826213767e-06 1.9478825222229069e-08 0.0000000000000000e+00  -9.7479862618767737e-07 -2.4165580069822505e-07 0.0000000000000000e+00  -7.8064128097138460e-07 -3.8211702738465052e-07 0.0000000000000000e+00  -1.6366514431942535e-06 1.6693402127326606e-08 0.0000000000000000e+00  1.3339016167607999e-06 3.4404391033060511e-07 0.0000000000000000e+00  3.1386617646025715e-06 -4.0218582364964893e-07 0.0000000000000000e+00  -9.5883563200592638e-07 1.5959730824042533e-08 0.0000000000000000e+00  -1.6923195387489222e-06 1.0234500558384561e-06 0.0000000000000000e+00  6.1716224440596388e-07 2.1590150175307548e-06 0.0000000000000000e+00  -3.9995247377913827e-06 -1.3471076644001011e-06 0.0000000000000000e+00  -3.7011310526833078e-06 -6.8526111175532521e-07 0.0000000000000000e+00  -2.2642853293792633e-06 9.2807654967427275e-07 0.0000000000000000e+00  -1.4303124695826976e-06 4.3335773573773229e-06 0.0000000000000000e+00  -3.8239846144868403e-06 3.3402179138727326e-07 0.0000000000000000e+00  -5.1106266505384137e-06 -6.6611400713239544e-07 0.0000000000000000e+00  -4.6437611996673814e-06 7.1101456288730570e-07 0.0000000000000000e+00  2.3099720661996524e-06 -2.4424756092937691e-07 0.0000000000000000e+00  -1.3370101554670156e-06 7.7707905889224099e-07 0.0000000000000000e+00  -4.3645310043537308e-06 8.8676589761911458e-07 0.0000000000000000e+00  2.2120071951830329e-06 2.4715150286952060e-07 0.0000000000000000e+00  1.8315900770130696e-06 2.7170242561994764e-07 0.0000000000000000e+00  7.1653567354850495e-06 -4.4179216218195908e-07 0.0000000000000000e+00  1.5000025317602619e+00 -6.5243851396648338e-09 0.0000000000000000e+00  -8.0371003816244226e-06 -8.1682257736046451e-07 0.0000000000000000e+00  -1.9448569511630835e-06 -1.8942082363699369e-07 0.0000000000000000e+00  -1.3047632118136330e-06 -4.0388526362007753e-08 0.0000000000000000e+00  -2.8259278760927292e-06 1.0163416340343878e-07 0.0000000000000000e+00  -8.6957062347027180e-07 -1.1866506560993618e-08 0.0000000000000000e+00  5.2668882214140956e-06 3.7792770554903478e-07 0.0000000000000000e+00  -3.4399141260415814e-06 -1.1303890822811677e-07 0.0000000000000000e+00  2.0562906749928801e-06 -5.1964210348825977e-07 0.0000000000000000e+00  5.1795984086232406e-06 -6.5824557009813833e-07 0.0000000000000000e+00  -1.7881971671946131e-06 8.5096366914033254e-08 0.0000000000000000e+00  6.1974193844418625e-07 1.2977968105900013e-07 0.0000000000000000e+00  6.3395139738694071e-07 4.1661252507471717e-07 0.0000000000000000e+00  -3.7627722133816846e-06 4.6272539623553841e-07 0.0000000000000000e+00  9.7765881470103133e-01 4.5969342062849652e-02 0.0000000000000000e+00  1.0675080128943344e+00 1.7485816174804717e-02 0.0000000000000000e+00  6.6460442082552396e-01 -1.2412125971696888e-01 0.0000000000000000e+00  9.1338648160132152e-01 1.0142722426975434e-01 0.0000000000000000e+00  1.2347817282661497e+00 -8.6194166116529448e-03 0.0000000000000000e+00  2.2171370388066716e-01 2.1532788562041816e-02 0.0000000000000000e+00  1.2167197292196696e+00 -3.3591671450867146e-02 0.0000000000000000e+00  -1.7658096905177644e-06 -3.3625003851838968e-08 0.0000000000000000e+00  3.5630102722101112e-07 -1.7038986434154387e-07 0.0000000000000000e+00  -1.7485073537013782e-06 -1.3576503463180790e-07 0.0000000000000000e+00  1.2081579829099764e+00 -7.9204995150269006e-03 0.0000000000000000e+00  -2.0704833279237488e-06 -2.2084087690364779e-08 0.0000000000000000e+00  -3.3749219559354613e-06 -3.4061679924213546e-07 0.0000000000000000e+00  1.2018031927825010e+00 -4.8593952714450508e-02 0.0000000000000000e+00  3.9753223191521754e-06 1.1559955215290731e-07 0.0000000000000000e+00  3.6074124198498593e-06 -6.2511778918514309e-08 0.0000000000000000e+00  -4.9811957917487267e-06 -8.5602877941522973e-08 0.0000000000000000e+00  -6.2900822942906421e-06 1.0074997064714873e-07 0.0000000000000000e+00  4.1170008509767857e-06 1.2626804876221492e-07 0.0000000000000000e+00  -1.0988671186160108e-06 -4.8716281831644620e-09 0.0000000000000000e+00  3.3452269670227342e-07 6.1847740752791581e-08 0.0000000000000000e+00  6.1277461279127203e-07 1.3340211269084166e-07 0.0000000000000000e+00  -2.4229796454419768e-06 1.2954529145017626e-07 0.0000000000000000e+00  -3.9878562203697862e-06 6.7785104340507283e-07 0.0000000000000000e+00  1.5311797753142362e+00 8.3402821208959102e-02 0.0000000000000000e+00  3.8180689609290452e-06 1.3469534510598297e-06 0.0000000000000000e+00  1.1877395039717475e+00 -2.1039925356730757e-02 0.0000000000000000e+00  1.5110277577246842e+00 1.9206211976591416e-02 0.0000000000000000e+00  1.4255565235844982e+00 -3.6042367310494906e-02 0.0000000000000000e+00  1.5408190019716241e+00 -5.1872725487682085e-03 0.0000000000000000e+00  1.9610040094749659e+00 2.6806830289634299e-02 0.0000000000000000e+00  1.2541033023722907e+00 -1.0440995727236569e-02 0.0000000000000000e+00  1.2339807473187843e+00 6.7332173731990737e-03 0.0000000000000000e+00  1.3183357610150379e+00 -9.6233881501981648e-03 0.0000000000000000e+00  1.6929327970503214e+00 -1.4245710653519938e-01 0.0000000000000000e+00  1.5522454028778361e+00 4.9235503346792990e-02 0.0000000000000000e+00  1.8624978483327099e+00 5.9714871761550863e-03 0.0000000000000000e+00  1.1249985935563482e+00 -1.8614955699882780e-07 0.0000000000000000e+00  1.1250027540025760e+00 -2.0980311624906746e-09 0.0000000000000000e+00  1.7600824849046592e+00 -1.5904186809275780e-01 0.0000000000000000e+00  1.6187523864120972e+00 1.3672654410790483e-01 0.0000000000000000e+00  7.8784106069759208e-01 1.1817585508986574e-01 0.0000000000000000e+00  1.2829335076761366e+00 -1.0699684876841451e-02 0.0000000000000000e+00  1.5270342364338523e+00 7.0966620500519814e-02 0.0000000000000000e+00  1.1286033137928861e+00 4.6042819634622856e-03 0.0000000000000000e+00  1.3538750727310540e+00 6.3194453011171922e-02 0.0000000000000000e+00  1.4428886610560570e+00 -1.9868344177874676e-02 0.0000000000000000e+00  1.2263349861511790e+00 1.5946059349982358e-02 0.0000000000000000e+00  1.5650801046800966e+00 -1.2695437794211681e-01 0.0000000000000000e+00  1.2265129990426586e+00 -4.6816609585142565e-03 0.0000000000000000e+00  1.3212534975679167e+00 3.6345066540089933e-02 0.0000000000000000e+00  1.3542333818635703e+00 -3.1689726113045831e-02 0.0000000000000000e+00  1.1875714716579395e+00 1.6185475448995939e-03 0.0000000000000000e+00  1.4722640395100413e+00 -4.7784786369942288e-02 0.0000000000000000e+00  1.3178486136873058e+00 -3.1049128041353569e-02 0.0000000000000000e+00  1.0928277882894053e+00 -9.1667558493062611e-03 0.0000000000000000e+00  1.0463220555220998e+00 -3.0749102574378209e-02 0.0000000000000000e+00  -3.3385271869148248e-01 -2.4072117743531324e-02 0.0000000000000000e+00  1.7801843507536186e+00 1.2879822383179024e-01 0.0000000000000000e+00  3.7054729748619336e-01 3.6533656616691217e-02 0.0000000000000000e+00  1.1564543234413061e+00 3.5449473310039281e-02 0.0000000000000000e+00  1.1819987118439037e+00 2.5564493104096492e-01 0.0000000000000000e+00  1.3473262394989585e+00 2.9290856220245812e-02 0.0000000000000000e+00  8.7508813845245492e-01 -6.0508225389727908e-02 0.0000000000000000e+00  1.3813263253107764e+00 2.1750275604582373e-01 0.0000000000000000e+00  1.1338497985767855e+00 -6.0494713994428420e-02 0.0000000000000000e+00  9.7613916583288363e-07 -2.9663531222485062e-08 0.0000000000000000e+00  1.8340331825251057e+00 -6.0858356314655006e-02 0.0000000000000000e+00  1.1434223262539409e+00 -2.5619464163523509e-01 0.0000000000000000e+00  1.5785426327761714e+00 -6.3637287550375413e-02 0.0000000000000000e+00  -8.2512978185218151e-07 1.4032975695883137e-08 0.0000000000000000e+00  1.0198595030445901e+00 -3.5637365764042950e-03 0.0000000000000000e+00  6.9955436661483095e-06 7.1646395715537216e-07 0.0000000000000000e+00  -6.8721816050737843e-06 2.7921379980999811e-07 0.0000000000000000e+00  1.0364939598086669e+00 4.4306797929063522e-02 0.0000000000000000e+00  7.9271579055178516e-07 -4.1051423612619002e-08 0.0000000000000000e+00  1.8317575116155773e+00 7.8767715767939714e-02 0.0000000000000000e+00  1.0318507964773815e+00 -2.3523110562876304e-02 0.0000000000000000e+00  1.7922480546052941e+00 -1.1021155073290814e-01 0.0000000000000000e+00  -1.1267708195202579e-06 -2.5533164446368545e-07 0.0000000000000000e+00  1.7975671661099277e+00 -1.4217902281681158e-01 0.0000000000000000e+00  -6.1953968222895689e-06 1.7950825255568396e-08 0.0000000000000000e+00  1.0885731455421273e+00 7.4526629005529097e-03 0.0000000000000000e+00  1.5926232911179092e+00 1.3529688479445542e-01 0.0000000000000000e+00  2.8558274554862359e-06 5.2625882608544517e-07 0.0000000000000000e+00  1.7251935938070155e+00 7.9230732066911391e-02 0.0000000000000000e+00  1.3593429335532539e+00 -3.0236482616378518e-01 0.0000000000000000e+00  1.3399278353537374e+00 -1.2249677095238333e-01 0.0000000000000000e+00  1.3730150437701809e+00 1.2489095428513319e-01 0.0000000000000000e+00  -9.2803574579927703e-07 -6.6993647926228715e-08 0.0000000000000000e+00  1.2776710393741200e+00 -1.4318134036373846e-02 0.0000000000000000e+00  1.1114421587016625e+00 4.3050740984002162e-04 0.0000000000000000e+00  -3.5762641174157163e-06 -1.6774038676770203e-07 0.0000000000000000e+00  1.1239944445409724e+00 -3.6939800287509053e-02 0.0000000000000000e+00  8.8336905484593220e-01 1.0708854900502945e-01 0.0000000000000000e+00  1.0683830381389292e+00 1.1627878778718822e-02 0.0000000000000000e+00  9.6425374837160005e-01 8.2125839998537058e-03 0.0000000000000000e+00  1.1169662712697197e+00 1.6782344947203667e-02 0.0000000000000000e+00  1.9209298278297455e+00 1.8395674068456769e-01 0.0000000000000000e+00  1.4287744857750579e+00 -9.9717887194528208e-03 0.0000000000000000e+00  -4.6664762792449917e-07 6.8028973863282902e-07 0.0000000000000000e+00  2.1348650814672466e-06 -6.6230359874869160e-07 0.0000000000000000e+00  -7.9288348544541967e-07 -5.8870238341537594e-08 0.0000000000000000e+00  6.5625204283647720e-01 8.2503073091486951e-09 0.0000000000000000e+00  -7.6157771855521263e-07 3.6813496902446949e-07 0.0000000000000000e+00  1.0663187710568134e+00 -9.7790279716780722e-03 0.0000000000000000e+00  1.5723838306119096e+00 9.8934105509288148e-02 0.0000000000000000e+00  1.3284417208681036e+00 3.9505776791297839e-02 0.0000000000000000e+00  -5.3172625071569928e-07 6.6590741528170511e-07 0.0000000000000000e+00  4.5530163974165720e-07 -5.9019545924367255e-07 0.0000000000000000e+00  -5.4374068895949065e-06 -5.6930524888505411e-07 0.0000000000000000e+00  -2.3957574900303972e-06 4.9553982138588383e-08 0.0000000000000000e+00  -1.2749309227242352e-06 1.0994562047688214e-07 0.0000000000000000e+00  -2.1639901611228466e-06 -4.2385011223418127e-08 0.0000000000000000e+00  -4.9931484879360391e-07 -1.3508265231863987e-07 0.0000000000000000e+00  -6.1048824303455596e-06 5.5189774234896468e-07 0.0000000000000000e+00  -1.5471774018117776e-07 1.0587918536618727e-08 0.0000000000000000e+00  6.8967027914078176e-07 1.3091443093351849e-08 0.0000000000000000e+00  1.1926692264196417e-06 -7.7482222628766311e-08 0.0000000000000000e+00  -8.1448910508902376e-07 1.4138956113357177e-07 0.0000000000000000e+00  2.9848068065982036e-06 2.4438992409543565e-07 0.0000000000000000e+00  -3.8313389178419182e-06 -9.2957673461683825e-07 0.0000000000000000e+00  -1.7361016361407860e-06 -3.2355966800969549e-07 0.0000000000000000e+00  -7.0450836220118921e-07 -8.8227185099501539e-07 0.0000000000000000e+00  -1.7112391591483816e-06 -1.7907418678903209e-07 0.0000000000000000e+00  -2.9125432141012695e-06 -1.2672595813334628e-07 0.0000000000000000e+00  7.2702509788073422e-01 -5.1455191145641607e-02 0.0000000000000000e+00  8.4757955142874319e-01 2.6023820289483936e-02 0.0000000000000000e+00  9.0906633956377669e-01 -4.3064509058533687e-03 0.0000000000000000e+00  9.8692314043058316e-01 1.5275244321147418e-02 0.0000000000000000e+00  1.6534769300978300e+00 -6.6695686133491666e-02 0.0000000000000000e+00  -1.2859127428063746e-02 -2.1629165760381746e-02 0.0000000000000000e+00  1.5029749946780923e-02 -1.1079987570071656e-02 0.0000000000000000e+00  1.3017517899758222e+00 3.9493064844499978e-02 0.0000000000000000e+00  1.0307047928895301e+00 9.8897782445964556e-04 0.0000000000000000e+00  1.0628228706832963e+00 -6.8719891525964305e-02 0.0000000000000000e+00  1.3739404953801568e+00 -4.8518981486302411e-02 0.0000000000000000e+00  8.5368551119833758e-01 4.1017726997358006e-02 0.0000000000000000e+00  1.2078028685451165e+00 -1.0438171318301043e-02 0.0000000000000000e+00  1.1923980792406439e+00 -2.6782098256847468e-02 0.0000000000000000e+00  1.1836508431766550e+00 -3.9778899556516412e-03 0.0000000000000000e+00  1.1293466764409819e+00 2.0656392292435131e-02 0.0000000000000000e+00  9.4057847665483840e-01 -1.4455998101438730e-02 0.0000000000000000e+00  9.9436950473134311e-01 3.3210321209373572e-03 0.0000000000000000e+00  8.5373243960394252e-01 -1.9399947553879644e-02 0.0000000000000000e+00  7.9650113980093418e-01 -5.9971789978267107e-03 0.0000000000000000e+00  2.3566775094103198e-01 5.2864266492750084e-02 0.0000000000000000e+00  1.2255095716210991e+00 -8.4639532622442032e-02 0.0000000000000000e+00  1.1127575614685330e+00 -1.2708410109908386e-01 0.0000000000000000e+00  1.1685003445427746e+00 -1.0672017702216757e-01 0.0000000000000000e+00  1.5487760118295488e+00 -1.4905319893897312e-01 0.0000000000000000e+00  1.2783726515854155e+00 -1.8773534950347059e-02 0.0000000000000000e+00  1.5313506724934569e+00 -2.7199865755859854e-02 0.0000000000000000e+00  1.4837032584263747e+00 3.1214140295167999e-02 0.0000000000000000e+00  1.1816022455218766e+00 -4.4235406287885942e-02 0.0000000000000000e+00  1.4374927888148370e+00 -1.0699770395087098e-01 0.0000000000000000e+00  1.4865677817201011e+00 -1.0073170092526081e-01 0.0000000000000000e+00  1.1122936566272128e+00 -7.4369204493064930e-02 0.0000000000000000e+00  7.7900413515135020e-02 -5.4402088466141245e-02 0.0000000000000000e+00  2.8950027016326207e-01 1.5624182032087944e-02 0.0000000000000000e+00  1.3210191718895117e+00 -1.0755587273132753e-02 0.0000000000000000e+00  1.0509511867628964e+00 7.5520221939916858e-03 0.0000000000000000e+00  1.1679639789368339e+00 4.6853991979607566e-02 0.0000000000000000e+00  1.3347943030906961e+00 2.4829564937240697e-02 0.0000000000000000e+00  8.0649147063763227e-01 1.8600746942583103e-02 0.0000000000000000e+00  9.8071421133316616e-01 9.5476696073897981e-03 0.0000000000000000e+00  1.2455315298588516e+00 2.3798516031461995e-02 0.0000000000000000e+00  8.7338772228020523e-01 -3.5885978410328106e-04 0.0000000000000000e+00  9.4844911100986928e-01 1.5761373550858232e-03 0.0000000000000000e+00  6.5624906585991516e-01 7.8666389473089652e-08 0.0000000000000000e+00  1.0850285279905638e+00 3.7704024439355506e-02 0.0000000000000000e+00  1.5709420373873415e+00 3.6283709757671707e-02 0.0000000000000000e+00  1.5192223656040975e+00 -2.3020300656135851e-02 0.0000000000000000e+00  1.0310632795262502e+00 1.5413519969313874e-01 0.0000000000000000e+00  1.0560934306853780e+00 7.1104537772543705e-02 0.0000000000000000e+00  7.6202684016798838e-01 -1.5631230991594910e-02 0.0000000000000000e+00  8.3302001771206913e-01 8.7947133366526167e-02 0.0000000000000000e+00  1.5449640689115480e+00 -4.4981137616360904e-02 0.0000000000000000e+00  1.6571489217362325e+00 1.8694077736000911e-01 0.0000000000000000e+00  1.2129120019047397e+00 1.9928378199100955e-02 0.0000000000000000e+00  1.4565283384045411e+00 5.3688741795211686e-02 0.0000000000000000e+00  1.6088142596124384e+00 -1.8550067679024784e-02 0.0000000000000000e+00  1.4782101184586645e+00 -1.3548676155662767e-01 0.0000000000000000e+00  1.1088903859934003e+00 6.8769008496980824e-02 0.0000000000000000e+00  1.2609503893789651e+00 -1.3269608723961986e-02 0.0000000000000000e+00  1.2398332323829324e+00 2.6992955741519634e-03 0.0000000000000000e+00  8.8054425076024556e-01 -8.1819202460800718e-03 0.0000000000000000e+00  1.5983852199315289e+00 4.8741797245729496e-02 0.0000000000000000e+00  9.4153082486860573e-01 9.3698320309894167e-02 0.0000000000000000e+00  1.3846808123980736e+00 2.6995389137286781e-02 0.0000000000000000e+00  1.2234198774067435e+00 1.6102614410494595e-01 0.0000000000000000e+00  9.1778154863762595e-01 -2.5040033438843836e-02 0.0000000000000000e+00  1.1652808522270586e+00 -3.9336521517252469e-02 0.0000000000000000e+00  1.3610083776523805e+00 9.6268350009094131e-02 0.0000000000000000e+00  1.5229219472010271e+00 2.1244350512433414e-02 0.0000000000000000e+00  1.2349306138727143e+00 5.2528020291482611e-03 0.0000000000000000e+00  1.4661971097075708e+00 -5.0046799123346773e-02 0.0000000000000000e+00  1.1723581386486417e+00 5.1471791694009089e-02 0.0000000000000000e+00  1.3812394091458580e+00 -2.1284511978916110e-02 0.0000000000000000e+00  7.2430291927636459e-01 -2.5557105542818826e-03 0.0000000000000000e+00  6.6003299223413980e-01 -1.0418802465276987e-02 0.0000000000000000e+00  7.4181317952716530e-01 2.2103766966722907e-02 0.0000000000000000e+00  8.0937201703910233e-01 2.3041953527378339e-02 0.0000000000000000e+00  1.2209035929510215e+00 -1.5355362625978205e-03 0.0000000000000000e+00  8.3295779253076829e-01 -7.1562076440538907e-04 0.0000000000000000e+00  1.3210665816443685e+00 4.9999616063554304e-02 0.0000000000000000e+00  1.3835638880060905e+00 -2.9795465432181128e-02 0.0000000000000000e+00  8.4639476305354844e-01 3.5043548868089310e-02 0.0000000000000000e+00  8.1494883942459106e-01 3.5492841672193659e-02 0.0000000000000000e+00  1.3110526948806949e+00 -3.3197577924900877e-02 0.0000000000000000e+00  1.3694517963092061e+00 1.9449414423476082e-02 0.0000000000000000e+00  5.7097481772600178e-01 1.1991915485041292e-02 0.0000000000000000e+00  1.3607267469587854e+00 1.6655308958747922e-02 0.0000000000000000e+00  7.4925340405030671e-01 5.2302819190217847e-03 0.0000000000000000e+00  8.6551998290306342e-01 -1.6571321147680947e-02 0.0000000000000000e+00  7.3877042587509822e-01 -7.9109104050126167e-02 0.0000000000000000e+00  1.1774349855974060e+00 -6.5226920084574883e-02 0.0000000000000000e+00  7.3584545384642941e-01 1.2110858693363619e-02 0.0000000000000000e+00  1.5742663058150932e+00 7.5269683669619419e-02 0.0000000000000000e+00  1.5287403713045675e+00 4.7622835682811204e-01 0.0000000000000000e+00  1.0048044251143411e+00 1.8222002374789664e-01 0.0000000000000000e+00  8.4416382340511553e-01 -1.5011102985993709e-03 0.0000000000000000e+00  1.3188678925089830e+00 -1.2594600351199581e-01 0.0000000000000000e+00  1.4485536376135815e+00 -5.4589421537417515e-01 0.0000000000000000e+00  7.6842045738068865e-01 2.2177433817396990e-02 0.0000000000000000e+00  8.6853670215829282e-01 4.7426161566051983e-03 0.0000000000000000e+00  1.5379672449044284e+00 -2.5069016921484638e-02 0.0000000000000000e+00  4.2607967788636136e-01 1.2038695287125384e-01 0.0000000000000000e+00  1.4062540338529557e+00 1.0310393397955516e-07 0.0000000000000000e+00  1.2698460252743871e+00 -1.5309190636344578e-02 0.0000000000000000e+00  8.3967041258312858e-01 -2.8064689100828610e-04 0.0000000000000000e+00  1.4062506148273581e+00 1.5660077224683255e-08 0.0000000000000000e+00  8.3631440794687606e-01 3.1818986746068988e-03 0.0000000000000000e+00  1.8367673249455312e+00 -3.3017083267018726e-01 0.0000000000000000e+00  1.4167542411831007e+00 3.2502018828782828e-02 0.0000000000000000e+00  7.1451314149928480e-01 9.8633222375297397e-02 0.0000000000000000e+00  1.2547665432979656e+00 -1.9338188162071099e-02 0.0000000000000000e+00  7.2210853239761008e-01 -2.1434153229318740e-03 0.0000000000000000e+00  5.4400921976466354e-01 -3.8286471806587073e-03 0.0000000000000000e+00  1.4346453448883481e+00 2.5688801470444511e-04 0.0000000000000000e+00  4.6186858567178013e-01 -9.5206771039391316e-03 0.0000000000000000e+00  7.4858526586784990e-01 -9.7042195595083071e-04 0.0000000000000000e+00  1.3046104566594059e+00 -