<?xml version="1.0"?>
<VTKFile type="UnstructuredGrid"  version="0.1"  >
<UnstructuredGrid>
<Piece  NumberOfPoints="2426" NumberOfCells="4534">
<Points>
<DataArray  type="Float64"  NumberOfComponents="3"  format="ascii">0 0.41 0  0 0 0  2.2 0 0  2.2 0.41 0  0.2404508497187474 0.2293892626146237 0  0.25 0.2 0  0.2404508497187474 0.1706107373853764 0  0.2154508497187474 0.1524471741852423 0  0.1845491502812526 0.1524471741852423 0  0.1595491502812526 0.1706107373853764 0  0.15 0.2 0  0.1595491502812526 0.2293892626146237 0  0.1845491502812527 0.2475528258147577 0  0.2154508497187474 0.2475528258147577 0  0.5404508497187474 0.2293892626146237 0  0.55 0.2 0  0.5404508497187474 0.1706107373853764 0  0.5154508497187473 0.1524471741852423 0  0.4845491502812526 0.1524471741852423 0  0.4595491502812526 0.1706107373853764 0  0.45 0.2 0  0.4595491502812526 0.2293892626146237 0  0.4845491502812526 0.2475528258147577 0  0.5154508497187473 0.2475528258147577 0  1.1 0 0  0 0.205 0  1.1 0.41 0  0.55 0 0  0.55 0.41 0  0.275 0 0  0.275 0.41 0  1.65 0.41 0  1.65 0 0  1.375 0 0  1.375 0.41 0  1.925 0 0  1.925 0.41 0  0.8250000000000001 0.41 0  0.8250000000000001 0 0  1.5125 0.205 0  1.7875 0.205 0  0.9625000000000001 0.205 0  1.2375 0.205 0  2.2 0.205 0  0.7560964076246335 0.2151713709677419 0  1.99375 0.2152743902439024 0  2.0625 0 0  0.6875 0 0  2.0625 0.41 0  2.2 0.3075 0  0.6875 0.41 0  1.7875 0.41 0  1.375 0.1486128048780488 0  1.5125 0 0  1.7875 0 0  1.5125 0.41 0  0.9625000000000001 0 0  0.9625000000000001 0.41 0  0.4125 0 0  0.1375 0 0  0.1375 0.41 0  0.4125 0.41 0  1.2375 0 0  1.1 0.1486128048780487 0  1.2375 0.41 0  1.65 0.1486128048780487 0  1.126715909090909 0.2793064024390244 0  1.676715909090909 0.2793064024390244 0  1.348284090909091 0.2793064024390244 0  0.34375 0.3032389320646208 0  1.894702181800738 0.1282910975492754 0  2.092797818199262 0.1282910975492754 0  1.85625 0.3075 0  0.8630851210521902 0.286932093388664 0  0.89375 0.1025 0  0.35 0.1090282786671641 0  0 0.3075 0  0 0.1025 0  0.6526217841291382 0.288229645480046 0  0.7562500000000001 0.09660248895515888 0  0.6568633732316684 0.1557582854763441 0  2.099172119769978 0.25625 0  1.002356446954348 0.1010393851523063 0  1.99375 0.08395950269330846 0  1.459960956013612 0.3075 0  1.569025960719943 0.2986889805672169 0  1.03125 0.3278689922742084 0  0.75625 0.3247156761655783 0  1.959375 0.3126371951219512 0  1.749222215368287 0.1025 0  1.275777784631713 0.1025 0  2.2 0.1025 0  1.225938124459196 0.3075 0  1.550777784631713 0.1025 0  1.44375 0.07430640243902442 0  1.16875 0.07430640243902437 0  0.3528655045338512 0.2063263890916129 0  0.5890337614812103 0.08775733857679162 0  0.8504912436891263 0.190072835691683 0  1.899250267340833 0.2229966846119207 0  0.1020898364287272 0.3140258291809757 0  1.766482954545455 0.2934032012195123 0  1.051658316544432 0.2265720188842194 0  0.2 0.3400647632937836 0  1.421109702350723 0.2261157654379721 0  0.4812500000000001 0.41 0  0.4324401666997539 0.3216425986889796 0  0.098916018031319 0.09171660955420841 0  0.9508742791313441 0.2921736960864468 0  2.13125 0 0  2.118919042110979 0.3422084711244843 0  1.30625 0.41 0  0.20625 0 0  1.597888256393107 0.2173787389261347 0  0.4812500000000001 0 0  0.4324082967851086 0.08384041677422771 0  1.829299675393195 0.07400700849299596 0  0.568219932524165 0.3212274660843853 0  1.71875 0.41 0  0.268005226542646 0.08512186835670006 0  1.16875 0.41 0  2.038220665644273 0.332420740103091 0  0.6678017527842831 0.07701763866051195 0  0.89375 0.41 0  0.5111435174287687 0.07335351331957608 0  0.176193934632343 0.0734896648625108 0  0.07390688010811153 0.1697064032433452 0  0.05452951551825875 0.25625 0  0.61875 0.41 0  1.452769549894695 0.1548122580621249 0  1.369219062229598 0.07430640243902442 0  1.30625 0 0  1.720943423819132 0.1714577452753128 0  1.157188124459196 0.205 0  1.094219062229598 0.07430640243902437 0  1.304056576180868 0.1714577452753128 0  1.67579304192913 0.07430640243902437 0  0.2672907219039591 0.3037570723459566 0  1.209670467133757 0.1362100266964769 0  1.58125 0 0  1.03125 0 0  0.06875000000000001 0.41 0  0 0.35875 0  1.58125 0.41 0  1.631724228912893 0.3381867502687533 0  0.8240147050827157 0.1225233169495944 0  1.825608881788174 0.14499488549201 0  1.85625 0 0  1.44375 0 0  1.44375 0.41 0  1.85625 0.41 0  2.13125 0.41 0  0.7562500000000001 0.41 0  0.7562500000000001 0 0  0.89375 0 0  0.34375 0 0  0.34375 0.41 0  0.20625 0.41 0  0.06875000000000001 0 0  1.16875 0 0  1.03125 0.41 0  0.61875 0 0  1.71875 0 0  1.99375 0 0  1.99375 0.41 0  0.3972301426712326 0.2593842555611471 0  1.340625 0.3489494290853124 0  1.134375 0.3489494290853123 0  1.700180620188976 0.3438659752031281 0  0.5003922072260507 0.341765274319271 0  0.6212513815748759 0.2209216137134851 0  0.6885607720119526 0.215393731583638 0  1.033412357328477 0.1612902025713047 0  2.135782184673599 0.07126652247502523 0  1.668441847249787 0.2129203728327609 0  1.295782514339747 0.2378437748815763 0  1.409375 0.3520314716057996 0  2.129248544730567 0.1906135162504124 0  2.060771381434487 0.1989445750470348 0  2.013252586573865 0.1496169464686054 0  1.942766402200229 0.1734448904596831 0  1.895522487186454 0.06076163953489683 0  2.069553871656643 0.06605731020975725 0  0.9281250000000001 0.3539050257418612 0  1.274680914880868 0.3520219391081363 0  0.3030138498135347 0.2488370856812789 0  0.8223773249563684 0.341761430177996 0  0.9018164060227267 0.2326477848736739 0  0.8143027982392851 0.2440265179987191 0  0.7225087161029304 0.2699907246386231 0  1.614713220494657 0.09473434380863296 0  0.378125 0.3566194660323104 0  0.309375 0.3566194660323104 0  1.72990325744076 0.2380068107952482 0  0.6915936999299305 0.3429472631234433 0  0.6268087624932918 0.3466455500035671 0  1.356580098625191 0.2120393231351682 0  0.3060160055995138 0.1590148921620778 0  0.3954648733249218 0.156380553890791 0  2.034370752044885 0.2668681600792073 0  1.51768709249349 0.3426260931494756 0  1.561883724969884 0.1650446847858835 0  1.197344062229598 0.2523725417393646 0  0.9281250000000001 0.05124999999999999 0  1.804085235518364 0.3468178408964637 0  1.817887819205233 0.2589243285818559 0  0.9107805776841645 0.1653834539923287 0  1.905897727272727 0.3485060975609756 0  0 0.05125 0  0.844212276491354 0.0614201194265309 0  0.378125 0.05244637078450034 0  1.008571329007178 0.2705955969954818 0  0.7724048032149464 0.1559079561351474 0  0.7203054377831548 0.04941826955193545 0  1.192836486056382 0.3562350748565544 0  0.5967108020713719 0.1479294686523888 0  1.28257088594801 0.2944411014911587 0  0.7041890234548132 0.1222025174424443 0  1.474860187679412 0.2504218616229368 0  1.406767003493824 0.2829282258560709 0  0.3201325899091991 0.05890121548989159 0  0.5979220912872258 0.2727591995766724 0  1.845656689180403 0.1998310418452388 0  2.144958525570388 0.2909790873294231 0  2.2 0.15375 0  1.57794966442982 0.3540357145964566 0  0.9483181579620558 0.1214693369582054 0  0.0496154796471391 0.333125 0  1.508991196088596 0.1421783375065625 0  0.09776612425612034 0.2204896805326566 0  1.50436820029908 0.06143401634903343 0  1.223857000523521 0.0823554862453532 0  0.2531953886959507 0.3582003209055908 0  1.153316824384777 0.1289850171317837 0  2.148922302309752 0.1258841779285271 0  1.621993280276081 0.2841214267927899 0  1.550118654119087 0.2461998729100966 0  1.327182649291491 0.1216967252533594 0  1.753125 0.04556020050186112 0  1.271875 0.04556020050186116 0  0.9824282234771738 0.05051969257615314 0  1.039510847866381 0.05683351822678641 0  1.94956388244759 0.1180512551534177 0  1.949997712993411 0.04965831614304109 0  1.771961817615021 0.1530278789497521 0  1.909246823951428 0.2812757146784527 0  1.101974016627944 0.2038045618205013 0  0.7906250000000001 0.0444674049654372 0  1.948575539857022 0.2445328248721197 0  1.697271520964565 0.1233917627620729 0  1.065625 0.3689344961371042 0  1.085849084308977 0.3170853572226867 0  0.9840604787624379 0.3582077516409966 0  1.577403511714593 0.05463601888079143 0  0.05622663515370135 0.05493816910862376 0  0.8762396958822678 0.3392249777398821 0  1.751571320346033 0.3651102912045228 0  1.055327852410105 0.111864799513911 0  0.1583785085108421 0.2994699345738728 0  0.1455283439499995 0.3542795598723423 0  2.2 0.35875 0  0.225705107073232 0.05084786997482401 0  0.1455852234589313 0.1166494778469164 0  1.466879772203159 0.3611261772912453 0  1.990280163552011 0.3564754268533217 0  1.17471064520912 0.2990917256188288 0  0.7221925551074015 0.1739659241003985 0  0 0.25625 0  2.2 0.25625 0  2.2 0.05125 0  0 0.15375 0  1.853978576207987 0.35875 0  0.21965520498276 0.1015543880164422 0  1.515638456102889 0.2882700110184686 0  0.09048297387599738 0.3637717362208066 0  2.150453692751374 0.2387066338105111 0  1.323782677156475 0.04897634338873398 0  1.409375 0.03715320121951221 0  1.406484531114799 0.1087852750766809 0  1.134375 0.03715320121951218 0  1.627401732573545 0.04552157221025036 0  0.446875 0.3713289093361426 0  2.045405893604797 0.1105340662939892 0  1.255408269734577 0.1577307500159216 0  2.028125 0.03707597992059326 0  0.04420832937638274 0.128125 0  0.5817551710628505 0.3702615006034757 0  0.1197849154434487 0.2663398672460083 0  1.248258025468107 0.2565907092181813 0  0.1300647302703173 0.0508462728378621 0  0.7738123537510222 0.2761231499240648 0  1.203125 0.0366132337404304 0  0.5444207041612499 0.111205399508622 0  0.8016457771828226 0.1964238426015905 0  2.072662025974815 0.2975086504196739 0  0.4019040438866802 0.2103993403217561 0  0.4677372330974851 0.04827477407630658 0  0.8677218578847617 0.1432970430140788 0  1.058011122005847 0.2758866204059919 0  0.4429405887974043 0.2746184809910084 0  0.5843750000000001 0.03726989681835222 0  0.6318596133730142 0.1128692182767254 0  0.4862628454464408 0.2957029785303028 0  0.7805186758662764 0.3673578380827891 0  1.887722846421017 0.1760882698830035 0  0.3498893058880703 0.256189258793856 0  1.472640588990488 0.1118278026240017 0  1.865937103925594 0.2604137786483804 0
[...]
<PointData  Vectors="f_37"> 
<DataArray  type="Float64"  Name="f_37"  NumberOfComponents="3" format="ascii">-6.1199230000312369e-07 2.0481439753357841e-08 0.0000000000000000e+00  3.7321759186356539e-07 -2.9730541779763224e-08 0.0000000000000000e+00  -1.8156418460743487e-06 1.7534521071770770e-08 0.0000000000000000e+00  4.0920580889815322e-07 1.8442976755289413e-08 0.0000000000000000e+00  -9.8312577736936542e-07 1.6439966548128562e-07 0.0000000000000000e+00  -7.7563891161918960e-07 1.8186835403808523e-07 0.0000000000000000e+00  -1.6749544413382561e-06 3.4291598495539524e-07 0.0000000000000000e+00  1.1437824351774863e-06 2.6914499615136770e-07 0.0000000000000000e+00  2.8607331814556821e-06 -4.7833804952403006e-07 0.0000000000000000e+00  -9.4958800722996393e-07 7.3693405408247365e-08 0.0000000000000000e+00  -1.7400023253661860e-06 1.0912476480935504e-06 0.0000000000000000e+00  6.7745209725872542e-07 2.2297520253728844e-06 0.0000000000000000e+00  -3.7229139424115305e-06 -1.2880099146959853e-06 0.0000000000000000e+00  -3.5132968896368395e-06 -8.9064662921773876e-07 0.0000000000000000e+00  -1.9003442567593640e-06 -5.0648548836910257e-07 0.0000000000000000e+00  -1.4205449618922274e-06 -1.5570586318274443e-06 0.0000000000000000e+00  -3.8442961782910762e-06 -6.4066981786520239e-07 0.0000000000000000e+00  -2.2164824718046490e-06 1.6732556222122420e-07 0.0000000000000000e+00  -8.6113994610549622e-07 -2.6317115237826188e-07 0.0000000000000000e+00  -2.5442434325456164e-06 -3.3497918731690707e-07 0.0000000000000000e+00  -9.7019835730786123e-07 -4.2789932898455749e-07 0.0000000000000000e+00  -1.4038062360604877e-07 -4.0446056026318900e-07 0.0000000000000000e+00  -1.6003722918284333e-06 1.7775762395800520e-07 0.0000000000000000e+00  -1.2197779755777747e-06 1.1783822204346688e-07 0.0000000000000000e+00  -2.2969320702681923e-06 -2.4749433929514410e-07 0.0000000000000000e+00  1.5000025226535869e+00 9.8992391534378958e-09 0.0000000000000000e+00  8.0487319231607571e-07 -1.2299703007481723e-07 0.0000000000000000e+00  -2.4540645629312279e-06 -2.4935345516167967e-08 0.0000000000000000e+00  -7.3987575615707383e-07 1.0126706698050337e-07 0.0000000000000000e+00  -2.5847997704186452e-06 8.7467154226782564e-08 0.0000000000000000e+00  -1.1311610743669621e-06 -3.0611433744035479e-08 0.0000000000000000e+00  -1.5726171553922187e-06 -2.1373284110463549e-08 0.0000000000000000e+00  8.0642252103858921e-07 1.3472076904038361e-07 0.0000000000000000e+00  -3.2735450920220675e-07 2.7126161543898805e-07 0.0000000000000000e+00  3.3665650182871976e-06 3.7034886085090164e-07 0.0000000000000000e+00  -7.4591688033718620e-07 -2.1823474773275623e-08 0.0000000000000000e+00  -1.5696406508497469e-06 -1.4509305629878016e-07 0.0000000000000000e+00  -1.8069349559013132e-06 -1.6078284769595747e-07 0.0000000000000000e+00  -7.7632967200860728e-07 -3.4174138940714126e-07 0.0000000000000000e+00  1.0510689154476891e+00 -5.8667065281674861e-02 0.0000000000000000e+00  1.1691660761106071e+00 2.4859988365744528e-02 0.0000000000000000e+00  6.1842175984078074e-01 2.3607744764062140e-02 0.0000000000000000e+00  9.0396249894587666e-01 1.4557263229170161e-02 0.0000000000000000e+00  1.2259075359650393e+00 8.9256389465434405e-02 0.0000000000000000e+00  2.1022682408541873e-01 -6.6570323464155298e-02 0.0000000000000000e+00  1.1819321729302650e+00 -6.3957466176378958e-02 0.0000000000000000e+00  -7.0147120728543933e-07 3.8996699234490823e-08 0.0000000000000000e+00  -2.3198281172664508e-06 -4.0014276004243581e-08 0.0000000000000000e+00  -1.0633815373450712e-06 -1.5123224211931705e-07 0.0000000000000000e+00  1.2948045755530888e+00 -1.6722818476143739e-02 0.0000000000000000e+00  3.3433241392249138e-07 3.2276633479814344e-08 0.0000000000000000e+00  1.5586090563428633e-06 2.9729510773714025e-07 0.0000000000000000e+00  1.3097500064524357e+00 4.8646232625124729e-03 0.0000000000000000e+00  2.3086836581910782e-06 -1.9165618913609612e-07 0.0000000000000000e+00  -8.6611001835942719e-07 -7.9779847815787081e-09 0.0000000000000000e+00  -1.9312987545751802e-07 -3.2258517810839566e-07 0.0000000000000000e+00  -1.5328594660923582e-06 2.3364802666150533e-07 0.0000000000000000e+00  -3.5294036955004525e-08 1.3008920869603737e-07 0.0000000000000000e+00  -6.2385685560883791e-07 -2.9090914130239506e-08 0.0000000000000000e+00  3.0761549777411529e-07 6.4051729715087309e-08 0.0000000000000000e+00  5.9412597979113837e-07 1.3323016264986654e-07 0.0000000000000000e+00  -2.8279308313527132e-06 1.0436634433314960e-07 0.0000000000000000e+00  3.1048658344514576e-06 -1.0623696546189349e-07 0.0000000000000000e+00  1.3590882671220679e+00 1.1700824040887644e-02 0.0000000000000000e+00  -3.0739438667983269e-06 -1.8050680660098234e-07 0.0000000000000000e+00  1.3816412662068778e+00 3.2844582664320811e-02 0.0000000000000000e+00  1.5636694615874771e+00 -1.2946811243270427e-02 0.0000000000000000e+00  1.4408877670742759e+00 3.5909591216996039e-03 0.0000000000000000e+00  1.5417097479515793e+00 -2.5387049695281921e-02 0.0000000000000000e+00  1.9609149844978444e+00 3.0664920702979898e-02 0.0000000000000000e+00  1.3149386195800288e+00 -2.2595221898191790e-02 0.0000000000000000e+00  1.3309052115824063e+00 5.5768655302068397e-03 0.0000000000000000e+00  1.2646602742276294e+00 7.5867636874968006e-03 0.0000000000000000e+00  1.6631923431342674e+00 -9.2113154486538645e-02 0.0000000000000000e+00  1.5425632569709300e+00 7.7147750230168885e-02 0.0000000000000000e+00  1.8650919695880113e+00 1.0730589943419223e-02 0.0000000000000000e+00  1.1249986039634596e+00 -1.7552888860098208e-07 0.0000000000000000e+00  1.1250027105236584e+00 1.2981024760056332e-08 0.0000000000000000e+00  1.7719151179488206e+00 -1.7023786143554662e-01 0.0000000000000000e+00  1.6552669682361687e+00 1.4566401511341420e-01 0.0000000000000000e+00  7.2393922258943844e-01 9.5372360113540305e-02 0.0000000000000000e+00  1.2413308292733853e+00 5.3982887786138987e-02 0.0000000000000000e+00  1.4675426621652374e+00 1.5876058950869392e-02 0.0000000000000000e+00  1.1035603957329920e+00 6.4982318176170055e-03 0.0000000000000000e+00  1.3417653393759863e+00 7.2155571840616236e-03 0.0000000000000000e+00  1.3823884398691524e+00 1.7712852671756072e-02 0.0000000000000000e+00  1.2349805519357220e+00 -2.6546489404110366e-02 0.0000000000000000e+00  1.5420804905922030e+00 -1.1603496105458995e-01 0.0000000000000000e+00  1.2253926259344670e+00 6.7410269064388881e-03 0.0000000000000000e+00  1.2583298339551672e+00 -4.1918972497624035e-03 0.0000000000000000e+00  1.3782218619772537e+00 -3.3606646761385347e-03 0.0000000000000000e+00  1.1793882919486121e+00 -5.4864433060843633e-03 0.0000000000000000e+00  1.4140923867129898e+00 7.1576802267160813e-03 0.0000000000000000e+00  1.3413975896563632e+00 1.5533006256485255e-02 0.0000000000000000e+00  1.0614515992302114e+00 8.8996496675163733e-04 0.0000000000000000e+00  1.0856170455836247e+00 1.0044988071043497e-02 0.0000000000000000e+00  -3.3011429923060531e-01 -1.2512631935851582e-02 0.0000000000000000e+00  1.7788495108864764e+00 1.2132738600533816e-01 0.0000000000000000e+00  4.5304076774633023e-01 5.2329421014251441e-02 0.0000000000000000e+00  1.2963679332941960e+00 -6.5564413418611064e-02 0.0000000000000000e+00  1.1818373960714017e+00 2.5545543231734247e-01 0.0000000000000000e+00  1.4338508129410428e+00 -2.7044673193489587e-02 0.0000000000000000e+00  1.0652636399097144e+00 -5.5404081237035253e-02 0.0000000000000000e+00  1.3810465711312989e+00 2.1769576220239945e-01 0.0000000000000000e+00  1.1963675393367490e+00 -2.9735783800831025e-02 0.0000000000000000e+00  8.3338018942162120e-07 1.4876184465464364e-09 0.0000000000000000e+00  1.8408231574228933e+00 -6.1178986728893943e-02 0.0000000000000000e+00  1.1435863967865576e+00 -2.5638715772995463e-01 0.0000000000000000e+00  1.6360686852831070e+00 -7.3597012147212010e-02 0.0000000000000000e+00  -1.7619436486212055e-06 2.2369151508544932e-07 0.0000000000000000e+00  9.6318090954933744e-01 2.0698566112636193e-03 0.0000000000000000e+00  -2.1462201910413068e-06 3.0900606171305345e-07 0.0000000000000000e+00  -6.8919944643427075e-06 2.6736629637277592e-07 0.0000000000000000e+00  1.0774900763002877e+00 -7.1814901050567658e-03 0.0000000000000000e+00  1.0288752652561173e-06 -1.3411923613118552e-08 0.0000000000000000e+00  1.8241963972300457e+00 7.8387638146988625e-02 0.0000000000000000e+00  1.0259435375412367e+00 -1.5146300870535381e-03 0.0000000000000000e+00  1.7925191775853788e+00 -1.1574337240983364e-01 0.0000000000000000e+00  -1.7420528855980767e-06 1.7014194995411852e-07 0.0000000000000000e+00  1.7979020741372223e+00 -1.4108828162172343e-01 0.0000000000000000e+00  -2.0606711969200414e-06 -3.9103533333018053e-07 0.0000000000000000e+00  1.0672016233303585e+00 3.2688920978484678e-03 0.0000000000000000e+00  1.6057666607076320e+00 1.2782943442200637e-01 0.0000000000000000e+00  -4.1552217015733984e-06 6.2766565335513409e-08 0.0000000000000000e+00  1.7208548699735551e+00 7.3641750012416060e-02 0.0000000000000000e+00  1.3596676751529000e+00 -3.0225699933247735e-01 0.0000000000000000e+00  1.3399886780003847e+00 -1.2286425650457375e-01 0.0000000000000000e+00  1.3729688887561593e+00 1.2464688868106659e-01 0.0000000000000000e+00  4.0942673134520185e-07 5.0890589110755242e-08 0.0000000000000000e+00  1.2420883288966047e+00 -1.2528033557683373e-02 0.0000000000000000e+00  1.0618030785778072e+00 -1.1289140025802006e-02 0.0000000000000000e+00  8.4039071138288950e-07 4.2711578972586642e-07 0.0000000000000000e+00  1.1982593645918227e+00 6.1592717399719575e-02 0.0000000000000000e+00  8.5241218119400231e-01 -4.1064381410516382e-02 0.0000000000000000e+00  1.1194631428949005e+00 1.0384338945897983e-02 0.0000000000000000e+00  1.1534100158392977e+00 4.0824584250044517e-02 0.0000000000000000e+00  1.0212004415958034e+00 -9.3012654592048386e-03 0.0000000000000000e+00  1.9202202785263502e+00 1.8481227138362058e-01 0.0000000000000000e+00  1.5039237077160035e+00 3.4417120945571644e-02 0.0000000000000000e+00  4.3188316270918147e-06 -2.1689686931430191e-07 0.0000000000000000e+00  -2.8129778827583994e-06 2.2767675681311671e-07 0.0000000000000000e+00  -8.0275815720618636e-07 -5.6687170074413689e-08 0.0000000000000000e+00  6.5625203838314083e-01 1.4766193270025342e-08 0.0000000000000000e+00  -3.1077135816504869e-06 -2.0893324517432531e-07 0.0000000000000000e+00  1.0209776928118890e+00 7.1769340551939567e-04 0.0000000000000000e+00  1.6398036926164035e+00 1.4192099564295677e-01 0.0000000000000000e+00  1.2116546561608244e+00 -5.1725731344058768e-03 0.0000000000000000e+00  -1.1879500081320798e-06 2.0308549626178688e-07 0.0000000000000000e+00  -4.9575107412310421e-06 -2.9867836905080870e-08 0.0000000000000000e+00  2.2790451523532847e-06 4.2995430265079755e-08 0.0000000000000000e+00  -1.9344630733133565e-08 -2.4483372945120687e-08 0.0000000000000000e+00  -2.3628832105792987e-06 -1.6589385633749577e-07 0.0000000000000000e+00  -3.1726180129698642e-07 4.3515069206097425e-09 0.0000000000000000e+00  -2.4559060618340669e-06 -2.7755769512933056e-07 0.0000000000000000e+00  1.2962516098243315e-06 -7.0801277162127664e-08 0.0000000000000000e+00  2.9328256674179999e-07 -9.1493602247213419e-09 0.0000000000000000e+00  2.7030964052262188e-07 1.6687086776908350e-08 0.0000000000000000e+00  1.1444636257620352e-06 -9.0540943304541586e-08 0.0000000000000000e+00  -8.2300978211483185e-07 1.4431397002514264e-07 0.0000000000000000e+00  2.1236113747780009e-06 -2.9485171491157293e-07 0.0000000000000000e+00  1.3282429962757727e-06 3.1355155008979207e-07 0.0000000000000000e+00  -3.3225729601218655e-06 -1.5521732264777820e-07 0.0000000000000000e+00  -3.2883433817326175e-06 1.1370157240386324e-07 0.0000000000000000e+00  -2.8496797858589641e-07 -3.9640229265650843e-07 0.0000000000000000e+00  -3.1555522857443280e-06 7.9117043289805193e-08 0.0000000000000000e+00  7.2391612022950169e-01 -4.1204034486577563e-02 0.0000000000000000e+00  8.5484912108221678e-01 -2.9909446685664480e-03 0.0000000000000000e+00  8.6625687490455061e-01 9.1652347583150821e-03 0.0000000000000000e+00  9.3375070621073686e-01 -3.6083665533256067e-03 0.0000000000000000e+00  1.6567527444068477e+00 -7.0906782676805613e-02 0.0000000000000000e+00  1.3932140517321065e-02 -1.1268821383608131e-02 0.0000000000000000e+00  4.5380363591724315e-02 -5.4010601975781967e-02 0.0000000000000000e+00  1.1289356952762990e+00 1.6461629929722749e-02 0.0000000000000000e+00  9.7389092544360101e-01 -1.0084413737698734e-02 0.0000000000000000e+00  1.0994190724025759e+00 6.2124964521165053e-02 0.0000000000000000e+00  1.1971262936705425e+00 1.3488578400511727e-02 0.0000000000000000e+00  8.0106915005335311e-01 3.8327348832899138e-03 0.0000000000000000e+00  1.2769509275268955e+00 7.9181033246792182e-02 0.0000000000000000e+00  1.2763209844371874e+00 4.2985988284383519e-02 0.0000000000000000e+00  1.4156743792522302e+00 3.5685483644041380e-02 0.0000000000000000e+00  1.2153403151745636e+00 -8.0208389018783272e-02 0.0000000000000000e+00  8.6394700872358487e-01 3.9480810649918753e-04 0.0000000000000000e+00  9.1257151715697971e-01 -7.1494404408670989e-03 0.0000000000000000e+00  8.8395417517645924e-01 -2.7144108244510964e-02 0.0000000000000000e+00  8.1898048894958764e-01 6.1452161486261734e-04 0.0000000000000000e+00  2.3108881894177044e-01 5.1269525143275291e-02 0.0000000000000000e+00  1.2320191500048185e+00 -6.5355170168004392e-02 0.0000000000000000e+00  9.2126375066099020e-01 -3.1830538485899805e-02 0.0000000000000000e+00  1.0513851365081830e+00 -9.6113784172186995e-02 0.0000000000000000e+00  1.5472359841131251e+00 -1.7198880336140190e-01 0.0000000000000000e+00  1.2377789087540909e+00 5.8716081644705827e-04 0.0000000000000000e+00  1.5345773888124192e+00 -2.6024046717541393e-02 0.0000000000000000e+00  1.4845573098785940e+00 3.2376144791744374e-02 0.0000000000000000e+00  1.2801735810440182e+00 3.6806940090343902e-02 0.0000000000000000e+00  1.4238490713406997e+00 -1.0710487258478002e-01 0.0000000000000000e+00  1.4791416329850100e+00 -1.0342567681083764e-01 0.0000000000000000e+00  1.0142407623923959e+00 2.4435620041543652e-02 0.0000000000000000e+00  8.0400543468160862e-02 -5.4840317364316382e-02 0.0000000000000000e+00  2.8414159792183075e-01 2.6387906196273847e-02 0.0000000000000000e+00  1.2588687887445864e+00 -2.8860630350171579e-03 0.0000000000000000e+00  9.4746779691808014e-01 1.4166059404490070e-02 0.0000000000000000e+00  1.2761287316825041e+00 3.4673314200918894e-03 0.0000000000000000e+00  1.3642611486412595e+00 -4.7408660858085276e-03 0.0000000000000000e+00  7.8180360342095978e-01 1.1840514123462768e-02 0.0000000000000000e+00  8.7957754888246997e-01 4.0057137779666427e-03 0.0000000000000000e+00  1.4768278300844089e+00 -4.4408046531051383e-02 0.0000000000000000e+00  1.0561866516439420e+00 8.8302880480281884e-02 0.0000000000000000e+00  8.7620068918549499e-01 7.4016199415416579e-03 0.0000000000000000e+00  6.5624905526668520e-01 8.5633222296914345e-08 0.0000000000000000e+00  1.0707659856867937e+00 5.6109883207883071e-02 0.0000000000000000e+00  1.5670051395223146e+00 3.7627760061019130e-02 0.0000000000000000e+00  1.6155761723786812e+00 -7.1313687390391081e-02 0.0000000000000000e+00  1.0688619595613844e+00 1.2280322925286624e-01 0.0000000000000000e+00  1.0740911268754694e+00 7.2767097260910893e-02 0.0000000000000000e+00  7.5190443267965568e-01 9.3472328118531980e-03 0.0000000000000000e+00  7.9457009106791143e-01 8.7717922480299748e-02 0.0000000000000000e+00  1.5034647940200605e+00 -7.4213775358557259e-03 0.0000000000000000e+00  1.6585885586812401e+00 1.6477615528959114e-01 0.0000000000000000e+00  1.3948441625295018e+00 -2.9156208196019343e-02 0.0000000000000000e+00  1.5185124178317286e+00 -2.4243727887095969e-02 0.0000000000000000e+00  1.6074386368517311e+00 -1.6840931558024550e-02 0.0000000000000000e+00  1.5084491146668515e+00 -1.3995531185201696e-01 0.0000000000000000e+00  1.1993746486520391e+00 -4.3610831276530773e-02 0.0000000000000000e+00  1.3658828384803428e+00 1.3344832052637902e-02 0.0000000000000000e+00  1.2221863007650384e+00 5.0754212420735849e-02 0.0000000000000000e+00  8.0140039343343528e-01 6.8149751089305226e-03 0.0000000000000000e+00  1.5645470621446960e+00 4.9619893578311022e-02 0.0000000000000000e+00  9.4149360433260543e-01 9.3601885005946017e-02 0.0000000000000000e+00  1.3857306628543951e+00 2.7076983899438226e-03 0.0000000000000000e+00  1.2233506568511312e+00 1.6051235250264737e-01 0.0000000000000000e+00  8.7129029888501441e-01 2.2220508322927856e-03 0.0000000000000000e+00  1.1785315014401105e+00 2.8809278396481511e-03 0.0000000000000000e+00  1.3610548460021441e+00 9.6776980131980203e-02 0.0000000000000000e+00  1.5321343176971640e+00 3.0871524707720151e-02 0.0000000000000000e+00  1.2816011241027918e+00 6.0913005525420356e-03 0.0000000000000000e+00  1.4188875845339761e+00 1.1517765909656301e-02 0.0000000000000000e+00  1.2784181356369195e+00 -1.6884465703060406e-02 0.0000000000000000e+00  1.4444620081977901e+00 -6.4228109958735574e-03 0.0000000000000000e+00  6.6396110127125618e-01 -2.8101078601327888e-03 0.0000000000000000e+00  6.2029615944938798e-01 -8.0707660581923867e-03 0.0000000000000000e+00  7.4242794689914149e-01 7.4632388512282368e-04 0.0000000000000000e+00  8.4140494525437748e-01 5.5620015875614633e-04 0.0000000000000000e+00  1.3722415645091159e+00 1.1453621116987417e-02 0.0000000000000000e+00  7.1862033233961542e-01 1.3232608115451008e-03 0.0000000000000000e+00  1.2143609460939380e+00 3.1324541904350710e-02 0.0000000000000000e+00  1.3679256049457433e+00 5.2484334774321002e-03 0.0000000000000000e+00  8.1110443187581849e-01 -5.0958330251735046e-02 0.0000000000000000e+00  8.1600199325913936e-01 4.5742767600878941e-02 0.0000000000000000e+00  1.2985930542415061e+00 -4.3282973173202684e-02 0.0000000000000000e+00  1.3504472581897462e+00 2.4509389388147882e-03 0.0000000000000000e+00  5.3627155575553587e-01 6.8355309446125050e-04 0.0000000000000000e+00  1.3418846263571766e+00 -1.1511234361751718e-02 0.0000000000000000e+00  7.5419140012407015e-01 -1.5917987246217583e-02 0.0000000000000000e+00  7.6968574498829534e-01 -2.3317026255170320e-03 0.0000000000000000e+00  7.3881733803407823e-01 -7.9187553618576517e-02 0.0000000000000000e+00  1.2067115475351755e+00 -5.2815628783011548e-02 0.0000000000000000e+00  6.4403904537526979e-01 -3.9251628520513576e-05 0.0000000000000000e+00  1.5208018144960891e+00 1.4104906081871907e-02 0.0000000000000000e+00  1.5283223248555724e+00 4.7609867838951120e-01 0.0000000000000000e+00  1.0045964049185487e+00 1.8219406736189570e-01 0.0000000000000000e+00  7.5952186059008497e-01 3.1981742791756338e-03 0.0000000000000000e+00  1.3189290242909510e+00 -1.2554377437972630e-01 0.0000000000000000e+00  1.4489691722846059e+00 -5.4610606347346624e-01 0.0000000000000000e+00  6.7705729849778351e-01 8.5934708208580176e-03 0.0000000000000000e+00  7.8326676896901526e-01 1.8797143288653206e-03 0.0000000000000000e+00  1.4774151997074167e+00 9.5921328653449985e-03 0.0000000000000000e+00  3.8464566509559511e-01 5.1893804785415255e-02 0.0000000000000000e+00  1.4062539951121162e+00 1.1807328930764042e-07 0.0000000000000000e+00  1.4082803908458406e+00 1.1941454346864687e-02 0.0000000000000000e+00  7.6422959836088267e-01 -6.4198831148978980e-03 0.0000000000000000e+00  1.4062505948951931e+00 3.2162870490407803e-08 0.0000000000000000e+00  7.3735817229556622e-01 6.0901266464897432e-03 0.0000000000000000e+00  1.8373489356741231e+00 -3.2969172009557207e-01 0.0000000000000000e+00  1.4318510333993639e+00 1.3869682768347219e-02 0.0000000000000000e+00  7.1441136733391630e-01 9.8562815076879251e-02 0.0000000000000000e+00  1.2537978120579114e+00 9.7794457878331909e-02 0.0000000000000000e+00  6.8360845323164632e-01 -1.0288405900231671e-02 0.0000000000000000e+00  5.2294653199315699e-01 -3.4891672566085305e-03 0.0000000000000000e+00  1.3896057224573988e+00 -7.1406227440699646e-03 0.0000000000000000e+00  4.8707597853870827e-01 1.1041429250919922e-03 0.0000000000000000e+00  6.4887309910527480e-01 -4.5379812202186141e-03 0.0000000000000000e+00  1.3081522052777859e+00 -4.4534313527