<?xml version="1.0"?>
<VTKFile type="UnstructuredGrid"  version="0.1"  >
<UnstructuredGrid>
<Piece  NumberOfPoints="2426" NumberOfCells="4534">
<Points>
<DataArray  type="Float64"  NumberOfComponents="3"  format="ascii">0 0.41 0  0 0 0  2.2 0 0  2.2 0.41 0  0.2404508497187474 0.2293892626146237 0  0.25 0.2 0  0.2404508497187474 0.1706107373853764 0  0.2154508497187474 0.1524471741852423 0  0.1845491502812526 0.1524471741852423 0  0.1595491502812526 0.1706107373853764 0  0.15 0.2 0  0.1595491502812526 0.2293892626146237 0  0.1845491502812527 0.2475528258147577 0  0.2154508497187474 0.2475528258147577 0  0.5404508497187474 0.2293892626146237 0  0.55 0.2 0  0.5404508497187474 0.1706107373853764 0  0.5154508497187473 0.1524471741852423 0  0.4845491502812526 0.1524471741852423 0  0.4595491502812526 0.1706107373853764 0  0.45 0.2 0  0.4595491502812526 0.2293892626146237 0  0.4845491502812526 0.2475528258147577 0  0.5154508497187473 0.2475528258147577 0  1.1 0 0  0 0.205 0  1.1 0.41 0  0.55 0 0  0.55 0.41 0  0.275 0 0  0.275 0.41 0  1.65 0.41 0  1.65 0 0  1.375 0 0  1.375 0.41 0  1.925 0 0  1.925 0.41 0  0.8250000000000001 0.41 0  0.8250000000000001 0 0  1.5125 0.205 0  1.7875 0.205 0  0.9625000000000001 0.205 0  1.2375 0.205 0  2.2 0.205 0  0.7560964076246335 0.2151713709677419 0  1.99375 0.2152743902439024 0  2.0625 0 0  0.6875 0 0  2.0625 0.41 0  2.2 0.3075 0  0.6875 0.41 0  1.7875 0.41 0  1.375 0.1486128048780488 0  1.5125 0 0  1.7875 0 0  1.5125 0.41 0  0.9625000000000001 0 0  0.9625000000000001 0.41 0  0.4125 0 0  0.1375 0 0  0.1375 0.41 0  0.4125 0.41 0  1.2375 0 0  1.1 0.1486128048780487 0  1.2375 0.41 0  1.65 0.1486128048780487 0  1.126715909090909 0.2793064024390244 0  1.676715909090909 0.2793064024390244 0  1.348284090909091 0.2793064024390244 0  0.34375 0.3032389320646208 0  1.894702181800738 0.1282910975492754 0  2.092797818199262 0.1282910975492754 0  1.85625 0.3075 0  0.8630851210521902 0.286932093388664 0  0.89375 0.1025 0  0.35 0.1090282786671641 0  0 0.3075 0  0 0.1025 0  0.6526217841291382 0.288229645480046 0  0.7562500000000001 0.09660248895515888 0  0.6568633732316684 0.1557582854763441 0  2.099172119769978 0.25625 0  1.002356446954348 0.1010393851523063 0  1.99375 0.08395950269330846 0  1.459960956013612 0.3075 0  1.569025960719943 0.2986889805672169 0  1.03125 0.3278689922742084 0  0.75625 0.3247156761655783 0  1.959375 0.3126371951219512 0  1.749222215368287 0.1025 0  1.275777784631713 0.1025 0  2.2 0.1025 0  1.225938124459196 0.3075 0  1.550777784631713 0.1025 0  1.44375 0.07430640243902442 0  1.16875 0.07430640243902437 0  0.3528655045338512 0.2063263890916129 0  0.5890337614812103 0.08775733857679162 0  0.8504912436891263 0.190072835691683 0  1.899250267340833 0.2229966846119207 0  0.1020898364287272 0.3140258291809757 0  1.766482954545455 0.2934032012195123 0  1.051658316544432 0.2265720188842194 0  0.2 0.3400647632937836 0  1.421109702350723 0.2261157654379721 0  0.4812500000000001 0.41 0  0.4324401666997539 0.3216425986889796 0  0.098916018031319 0.09171660955420841 0  0.9508742791313441 0.2921736960864468 0  2.13125 0 0  2.118919042110979 0.3422084711244843 0  1.30625 0.41 0  0.20625 0 0  1.597888256393107 0.2173787389261347 0  0.4812500000000001 0 0  0.4324082967851086 0.08384041677422771 0  1.829299675393195 0.07400700849299596 0  0.568219932524165 0.3212274660843853 0  1.71875 0.41 0  0.268005226542646 0.08512186835670006 0  1.16875 0.41 0  2.038220665644273 0.332420740103091 0  0.6678017527842831 0.07701763866051195 0  0.89375 0.41 0  0.5111435174287687 0.07335351331957608 0  0.176193934632343 0.0734896648625108 0  0.07390688010811153 0.1697064032433452 0  0.05452951551825875 0.25625 0  0.61875 0.41 0  1.452769549894695 0.1548122580621249 0  1.369219062229598 0.07430640243902442 0  1.30625 0 0  1.720943423819132 0.1714577452753128 0  1.157188124459196 0.205 0  1.094219062229598 0.07430640243902437 0  1.304056576180868 0.1714577452753128 0  1.67579304192913 0.07430640243902437 0  0.2672907219039591 0.3037570723459566 0  1.209670467133757 0.1362100266964769 0  1.58125 0 0  1.03125 0 0  0.06875000000000001 0.41 0  0 0.35875 0  1.58125 0.41 0  1.631724228912893 0.3381867502687533 0  0.8240147050827157 0.1225233169495944 0  1.825608881788174 0.14499488549201 0  1.85625 0 0  1.44375 0 0  1.44375 0.41 0  1.85625 0.41 0  2.13125 0.41 0  0.7562500000000001 0.41 0  0.7562500000000001 0 0  0.89375 0 0  0.34375 0 0  0.34375 0.41 0  0.20625 0.41 0  0.06875000000000001 0 0  1.16875 0 0  1.03125 0.41 0  0.61875 0 0  1.71875 0 0  1.99375 0 0  1.99375 0.41 0  0.3972301426712326 0.2593842555611471 0  1.340625 0.3489494290853124 0  1.134375 0.3489494290853123 0  1.700180620188976 0.3438659752031281 0  0.5003922072260507 0.341765274319271 0  0.6212513815748759 0.2209216137134851 0  0.6885607720119526 0.215393731583638 0  1.033412357328477 0.1612902025713047 0  2.135782184673599 0.07126652247502523 0  1.668441847249787 0.2129203728327609 0  1.295782514339747 0.2378437748815763 0  1.409375 0.3520314716057996 0  2.129248544730567 0.1906135162504124 0  2.060771381434487 0.1989445750470348 0  2.013252586573865 0.1496169464686054 0  1.942766402200229 0.1734448904596831 0  1.895522487186454 0.06076163953489683 0  2.069553871656643 0.06605731020975725 0  0.9281250000000001 0.3539050257418612 0  1.274680914880868 0.3520219391081363 0  0.3030138498135347 0.2488370856812789 0  0.8223773249563684 0.341761430177996 0  0.9018164060227267 0.2326477848736739 0  0.8143027982392851 0.2440265179987191 0  0.7225087161029304 0.2699907246386231 0  1.614713220494657 0.09473434380863296 0  0.378125 0.3566194660323104 0  0.309375 0.3566194660323104 0  1.72990325744076 0.2380068107952482 0  0.6915936999299305 0.3429472631234433 0  0.6268087624932918 0.3466455500035671 0  1.356580098625191 0.2120393231351682 0  0.3060160055995138 0.1590148921620778 0  0.3954648733249218 0.156380553890791 0  2.034370752044885 0.2668681600792073 0  1.51768709249349 0.3426260931494756 0  1.561883724969884 0.1650446847858835 0  1.197344062229598 0.2523725417393646 0  0.9281250000000001 0.05124999999999999 0  1.804085235518364 0.3468178408964637 0  1.817887819205233 0.2589243285818559 0  0.9107805776841645 0.1653834539923287 0  1.905897727272727 0.3485060975609756 0  0 0.05125 0  0.844212276491354 0.0614201194265309 0  0.378125 0.05244637078450034 0  1.008571329007178 0.2705955969954818 0  0.7724048032149464 0.1559079561351474 0  0.7203054377831548 0.04941826955193545 0  1.192836486056382 0.3562350748565544 0  0.5967108020713719 0.1479294686523888 0  1.28257088594801 0.2944411014911587 0  0.7041890234548132 0.1222025174424443 0  1.474860187679412 0.2504218616229368 0  1.406767003493824 0.2829282258560709 0  0.3201325899091991 0.05890121548989159 0  0.5979220912872258 0.2727591995766724 0  1.845656689180403 0.1998310418452388 0  2.144958525570388 0.2909790873294231 0  2.2 0.15375 0  1.57794966442982 0.3540357145964566 0  0.9483181579620558 0.1214693369582054 0  0.0496154796471391 0.333125 0  1.508991196088596 0.1421783375065625 0  0.09776612425612034 0.2204896805326566 0  1.50436820029908 0.06143401634903343 0  1.223857000523521 0.0823554862453532 0  0.2531953886959507 0.3582003209055908 0  1.153316824384777 0.1289850171317837 0  2.148922302309752 0.1258841779285271 0  1.621993280276081 0.2841214267927899 0  1.550118654119087 0.2461998729100966 0  1.327182649291491 0.1216967252533594 0  1.753125 0.04556020050186112 0  1.271875 0.04556020050186116 0  0.9824282234771738 0.05051969257615314 0  1.039510847866381 0.05683351822678641 0  1.94956388244759 0.1180512551534177 0  1.949997712993411 0.04965831614304109 0  1.771961817615021 0.1530278789497521 0  1.909246823951428 0.2812757146784527 0  1.101974016627944 0.2038045618205013 0  0.7906250000000001 0.0444674049654372 0  1.948575539857022 0.2445328248721197 0  1.697271520964565 0.1233917627620729 0  1.065625 0.3689344961371042 0  1.085849084308977 0.3170853572226867 0  0.9840604787624379 0.3582077516409966 0  1.577403511714593 0.05463601888079143 0  0.05622663515370135 0.05493816910862376 0  0.8762396958822678 0.3392249777398821 0  1.751571320346033 0.3651102912045228 0  1.055327852410105 0.111864799513911 0  0.1583785085108421 0.2994699345738728 0  0.1455283439499995 0.3542795598723423 0  2.2 0.35875 0  0.225705107073232 0.05084786997482401 0  0.1455852234589313 0.1166494778469164 0  1.466879772203159 0.3611261772912453 0  1.990280163552011 0.3564754268533217 0  1.17471064520912 0.2990917256188288 0  0.7221925551074015 0.1739659241003985 0  0 0.25625 0  2.2 0.25625 0  2.2 0.05125 0  0 0.15375 0  1.853978576207987 0.35875 0  0.21965520498276 0.1015543880164422 0  1.515638456102889 0.2882700110184686 0  0.09048297387599738 0.3637717362208066 0  2.150453692751374 0.2387066338105111 0  1.323782677156475 0.04897634338873398 0  1.409375 0.03715320121951221 0  1.406484531114799 0.1087852750766809 0  1.134375 0.03715320121951218 0  1.627401732573545 0.04552157221025036 0  0.446875 0.3713289093361426 0  2.045405893604797 0.1105340662939892 0  1.255408269734577 0.1577307500159216 0  2.028125 0.03707597992059326 0  0.04420832937638274 0.128125 0  0.5817551710628505 0.3702615006034757 0  0.1197849154434487 0.2663398672460083 0  1.248258025468107 0.2565907092181813 0  0.1300647302703173 0.0508462728378621 0  0.7738123537510222 0.2761231499240648 0  1.203125 0.0366132337404304 0  0.5444207041612499 0.111205399508622 0  0.8016457771828226 0.1964238426015905 0  2.072662025974815 0.2975086504196739 0  0.4019040438866802 0.2103993403217561 0  0.4677372330974851 0.04827477407630658 0  0.8677218578847617 0.1432970430140788 0  1.058011122005847 0.2758866204059919 0  0.4429405887974043 0.2746184809910084 0  0.5843750000000001 0.03726989681835222 0  0.6318596133730142 0.1128692182767254 0  0.4862628454464408 0.2957029785303028 0  0.7805186758662764 0.3673578380827891 0  1.887722846421017 0.1760882698830035 0  0.3498893058880703 0.256189258793856 0  1.472640588990488 0.1118278026240017 0  1.865937103925594 0.2604137786483804 0
[...]
<PointData  Vectors="f_37"> 
<DataArray  type="Float64"  Name="f_37"  NumberOfComponents="3" format="ascii">-6.1286319427069330e-07 2.0252039750656954e-08 0.0000000000000000e+00  3.7388809107365548e-07 -3.0063884255454814e-08 0.0000000000000000e+00  -4.7186367547856867e-07 4.9391222014717773e-09 0.0000000000000000e+00  1.4110455492626739e-06 1.1021144701809932e-09 0.0000000000000000e+00  -9.8288576734331779e-07 8.9899186122459354e-08 0.0000000000000000e+00  -7.7781061222598791e-07 1.2295625236641210e-07 0.0000000000000000e+00  -1.6633993368823341e-06 2.9512068238866890e-07 0.0000000000000000e+00  1.1966998088271963e-06 2.8063012873090381e-07 0.0000000000000000e+00  2.8943870139157773e-06 -5.0313673493056474e-07 0.0000000000000000e+00  -9.9016081582202611e-07 8.0167553700098168e-08 0.0000000000000000e+00  -1.7490404948251086e-06 1.1374671573388469e-06 0.0000000000000000e+00  7.0108847320714610e-07 2.2034043901218787e-06 0.0000000000000000e+00  -3.7556801757496539e-06 -1.3191550538072812e-06 0.0000000000000000e+00  -3.5720885212822265e-06 -8.4046666416755035e-07 0.0000000000000000e+00  -1.8606381425928241e-06 8.5651141939070792e-08 0.0000000000000000e+00  -1.4020808848842628e-06 6.3865933345590457e-07 0.0000000000000000e+00  -3.9223775725801018e-06 -1.9563729831612907e-07 0.0000000000000000e+00  -3.1334601914126616e-06 -9.1156930430276655e-08 0.0000000000000000e+00  -2.1117538356600396e-06 -4.3973660865051116e-08 0.0000000000000000e+00  -1.4034736021154573e-06 -3.0370911139737192e-07 0.0000000000000000e+00  -1.0828423004596159e-06 -1.6182635259686406e-07 0.0000000000000000e+00  -1.0888806577821603e-06 -6.5084589476406820e-08 0.0000000000000000e+00  -3.4850803494623517e-07 2.0350830109608303e-07 0.0000000000000000e+00  -2.1068775535035411e-07 1.2247229318576329e-07 0.0000000000000000e+00  6.7590130816550552e-07 -1.0848583140072854e-07 0.0000000000000000e+00  1.5000025218816793e+00 2.0719538605868487e-08 0.0000000000000000e+00  -2.4531825136710441e-06 -1.5096564997234832e-07 0.0000000000000000e+00  -2.2752932849849899e-06 -8.3661823845685786e-08 0.0000000000000000e+00  -9.4083849699495565e-07 5.0865108137415711e-08 0.0000000000000000e+00  -2.6597161019843531e-06 9.2822892412624916e-08 0.0000000000000000e+00  -1.0542741628211251e-06 -2.4635440064220731e-08 0.0000000000000000e+00  1.0170292981841767e-06 1.2016151358011436e-07 0.0000000000000000e+00  -6.0200047592644699e-07 4.6197169443529749e-08 0.0000000000000000e+00  1.4602883427223621e-06 -1.0762047685395952e-07 0.0000000000000000e+00  2.0337493655182062e-06 -1.1323550513180250e-07 0.0000000000000000e+00  6.9988032842559389e-07 -3.2010391491966224e-09 0.0000000000000000e+00  -1.1872635196220067e-06 -1.0308027153889713e-08 0.0000000000000000e+00  -4.3531426559838670e-07 7.5373249689251831e-08 0.0000000000000000e+00  -2.4825762822021062e-06 -6.6780218495336784e-09 0.0000000000000000e+00  1.0299935098503410e+00 -3.3274965627293034e-04 0.0000000000000000e+00  1.1301882487412125e+00 -2.4544770735758250e-02 0.0000000000000000e+00  6.1504017349278362e-01 -2.6279566809296800e-02 0.0000000000000000e+00  9.0662378094881124e-01 1.6409302950289709e-02 0.0000000000000000e+00  1.2181084311757500e+00 -2.5870410887279427e-02 0.0000000000000000e+00  2.1768008552413887e-01 -3.6288633652963788e-02 0.0000000000000000e+00  1.1756980821126168e+00 2.2452039531945980e-02 0.0000000000000000e+00  -1.6022042622371896e-06 8.2425173716811886e-10 0.0000000000000000e+00  -1.3538536483733538e-06 -7.6553936306299837e-08 0.0000000000000000e+00  -3.5436571737129053e-07 6.8977517214604630e-08 0.0000000000000000e+00  1.2612109105077938e+00 2.5332495393821119e-03 0.0000000000000000e+00  -5.1652233262620146e-07 2.7211713060892097e-08 0.0000000000000000e+00  -5.3554954920415978e-07 -1.2717911364375067e-07 0.0000000000000000e+00  1.3273277021699148e+00 1.8062983704734137e-03 0.0000000000000000e+00  2.6016844419865391e-06 -3.0092947162482965e-08 0.0000000000000000e+00  -5.0755290350386598e-07 -3.2226126149098856e-08 0.0000000000000000e+00  -8.5243963172488144e-07 -5.2550962368655354e-08 0.0000000000000000e+00  -2.0519033055957956e-06 2.8322008339734072e-08 0.0000000000000000e+00  6.3558534285640524e-07 3.8231077874182611e-08 0.0000000000000000e+00  -7.5134850377171921e-07 -2.1508264501049464e-08 0.0000000000000000e+00  3.0005541952889082e-07 6.4757777351474880e-08 0.0000000000000000e+00  6.0132967995373310e-07 1.3373073974507231e-07 0.0000000000000000e+00  -2.7176162658924052e-06 1.0997684869612554e-07 0.0000000000000000e+00  -2.4135588604368084e-07 1.6330951416949985e-07 0.0000000000000000e+00  1.4109734375861898e+00 3.5157876292402038e-02 0.0000000000000000e+00  4.4416700360073585e-07 2.2041431313123013e-07 0.0000000000000000e+00  1.3099126910224101e+00 1.4589294355227048e-02 0.0000000000000000e+00  1.5735754723949680e+00 -1.3593476243712908e-02 0.0000000000000000e+00  1.4674400523829159e+00 -1.2336561996593633e-02 0.0000000000000000e+00  1.5217200592890612e+00 -9.9699038889147287e-03 0.0000000000000000e+00  1.9606549071222958e+00 2.9651895522093397e-02 0.0000000000000000e+00  1.3706347647123209e+00 1.0327566583845401e-02 0.0000000000000000e+00  1.3099877277851391e+00 5.1750255402924269e-03 0.0000000000000000e+00  1.2983484093524498e+00 5.4857231721937710e-03 0.0000000000000000e+00  1.6692077795206799e+00 -1.0962748606120865e-01 0.0000000000000000e+00  1.5552236156851289e+00 7.1408507433467577e-02 0.0000000000000000e+00  1.8646779575359891e+00 9.5379017896080401e-03 0.0000000000000000e+00  1.1249985999101728e+00 -1.7160541347886841e-07 0.0000000000000000e+00  1.1250027069277018e+00 1.7263989071545645e-08 0.0000000000000000e+00  1.7689433979508338e+00 -1.6482396413967312e-01 0.0000000000000000e+00  1.6438662535508304e+00 1.3979019820630978e-01 0.0000000000000000e+00  7.4198120851468674e-01 1.0390991790942339e-01 0.0000000000000000e+00  1.3882066108835724e+00 -9.0471164327337022e-03 0.0000000000000000e+00  1.4877316272111225e+00 3.7147673452159802e-02 0.0000000000000000e+00  1.1105894329931878e+00 -5.5182293736439638e-04 0.0000000000000000e+00  1.3564891075980610e+00 9.4968463925225177e-03 0.0000000000000000e+00  1.4150771129590671e+00 -3.5966017104139105e-03 0.0000000000000000e+00  1.2417053539246869e+00 -1.3505168808784211e-02 0.0000000000000000e+00  1.5509965141359978e+00 -1.2058766767649637e-01 0.0000000000000000e+00  1.2626654837459819e+00 -1.4468734716877681e-03 0.0000000000000000e+00  1.2952815379432823e+00 2.4118277024379876e-03 0.0000000000000000e+00  1.3879454299306893e+00 -4.2241337907552110e-03 0.0000000000000000e+00  1.2387117494063418e+00 2.0741180233367720e-03 0.0000000000000000e+00  1.4253293525102111e+00 -1.2383953608856735e-02 0.0000000000000000e+00  1.3243483985413933e+00 -1.1683375123195663e-03 0.0000000000000000e+00  1.0536768374620886e+00 -7.5094692318720502e-04 0.0000000000000000e+00  1.0836802280031579e+00 -6.4212495969621893e-03 0.0000000000000000e+00  -3.3032073916369431e-01 -1.5483671730156461e-02 0.0000000000000000e+00  1.7795313092243097e+00 1.2301915971625026e-01 0.0000000000000000e+00  4.0864557861027773e-01 3.0908720359732141e-02 0.0000000000000000e+00  1.1820192181932483e+00 -1.3540373233852133e-02 0.0000000000000000e+00  1.1818689886271390e+00 2.5547956638309566e-01 0.0000000000000000e+00  1.3959451700814223e+00 5.1383971318044112e-04 0.0000000000000000e+00  9.7108763130227549e-01 -3.1651485841581853e-02 0.0000000000000000e+00  1.3810676675301854e+00 2.1760187472707210e-01 0.0000000000000000e+00  1.1332643024949269e+00 -2.8577397635671652e-02 0.0000000000000000e+00  8.5168136663155475e-07 -1.2499455707982584e-08 0.0000000000000000e+00  1.8389838225268320e+00 -6.0860243001716052e-02 0.0000000000000000e+00  1.1435541149686590e+00 -2.5635679833196262e-01 0.0000000000000000e+00  1.6120499193751234e+00 -6.3134938965763110e-02 0.0000000000000000e+00  -8.3639625339391099e-07 9.5955817582923568e-09 0.0000000000000000e+00  9.4860279382098944e-01 1.9779571505764769e-03 0.0000000000000000e+00  -1.7352703156133045e-07 1.0121959502598708e-07 0.0000000000000000e+00  -6.9281890191416596e-06 2.7213972127562356e-07 0.0000000000000000e+00  1.0915949070878188e+00 2.3387745596623915e-02 0.0000000000000000e+00  9.6595806737029250e-07 -2.7218996936548037e-08 0.0000000000000000e+00  1.8260956593081907e+00 7.8498586724503772e-02 0.0000000000000000e+00  1.0251369755679842e+00 7.5907388146557786e-05 0.0000000000000000e+00  1.7925007852944321e+00 -1.1375915746883612e-01 0.0000000000000000e+00  -1.0141400381316384e-06 4.1735900973356720e-08 0.0000000000000000e+00  1.7978800432828346e+00 -1.4138597257303742e-01 0.0000000000000000e+00  -1.7508833655618197e-06 2.1300979266903662e-08 0.0000000000000000e+00  1.0644716099503844e+00 -7.1116432283907082e-04 0.0000000000000000e+00  1.6021764019217661e+00 1.2966496302441669e-01 0.0000000000000000e+00  -1.5751691798670618e-06 1.4761083046805238e-07 0.0000000000000000e+00  1.7219939201739642e+00 7.4827647654042609e-02 0.0000000000000000e+00  1.3596154532009839e+00 -3.0230674673650748e-01 0.0000000000000000e+00  1.3399770590742996e+00 -1.2279437682707862e-01 0.0000000000000000e+00  1.3729785492962545e+00 1.2469503465191249e-01 0.0000000000000000e+00  -8.0021623141610630e-08 1.0568996663789048e-08 0.0000000000000000e+00  1.3110503739942458e+00 7.0945708931301954e-03 0.0000000000000000e+00  1.0688419795466502e+00 2.7534919517522720e-04 0.0000000000000000e+00  -6.5456984750586739e-07 2.9008196505606010e-08 0.0000000000000000e+00  1.1543355266891213e+00 7.1988587563000311e-03 0.0000000000000000e+00  8.4072776725955389e-01 1.8403470808568575e-02 0.0000000000000000e+00  1.1045750791651088e+00 4.7848135774056239e-03 0.0000000000000000e+00  1.0755492305712966e+00 6.8413593897179411e-03 0.0000000000000000e+00  1.0414975616025435e+00 -1.5522518607468214e-03 0.0000000000000000e+00  1.9203132326186068e+00 1.8447727414008688e-01 0.0000000000000000e+00  1.4552999271841540e+00 1.1287333521096692e-02 0.0000000000000000e+00  2.5319762180252437e-06 6.6359862987131173e-08 0.0000000000000000e+00  1.2862805238609205e-07 -9.6548770757338259e-08 0.0000000000000000e+00  -8.0379230588890705e-07 -5.7129179884440644e-08 0.0000000000000000e+00  6.5625203757395867e-01 1.5693971508821012e-08 0.0000000000000000e+00  -1.2396021051983339e-06 3.4030529939518636e-08 0.0000000000000000e+00  1.0072330696213294e+00 -2.9005506207030170e-04 0.0000000000000000e+00  1.6196291209153351e+00 1.2272191561378279e-01 0.0000000000000000e+00  1.3240117283665842e+00 -1.2195684715292706e-03 0.0000000000000000e+00  -1.9997894649516134e-07 -4.4068812939258790e-08 0.0000000000000000e+00  -2.4138039324997155e-06 -1.3569413219737432e-07 0.0000000000000000e+00  -1.1122824792008273e-06 -1.1428416882160684e-07 0.0000000000000000e+00  -1.9428683130963553e-06 -8.6657117702249904e-08 0.0000000000000000e+00  -3.1176209798476873e-07 1.6264766422598064e-08 0.0000000000000000e+00  -7.3388658928838447e-07 1.0070920257803357e-08 0.0000000000000000e+00  -2.0729763270502914e-06 -1.8032935862296592e-07 0.0000000000000000e+00  -1.5220614777052491e-06 6.9048417668657683e-08 0.0000000000000000e+00  1.7594251733280035e-07 -2.5235212137631236e-09 0.0000000000000000e+00  3.8822157689011502e-07 1.6279241982937376e-08 0.0000000000000000e+00  1.1813375140207273e-06 -8.5088223580560183e-08 0.0000000000000000e+00  -8.2093199859018151e-07 1.4360452684682261e-07 0.0000000000000000e+00  1.1757019514774585e-06 9.1904322802890888e-09 0.0000000000000000e+00  -1.6706990707551080e-06 -1.6643777558215804e-07 0.0000000000000000e+00  -2.7415958230186829e-06 -2.0499664290653753e-07 0.0000000000000000e+00  -3.0093908548011445e-06 -1.7075087088726414e-08 0.0000000000000000e+00  -1.0549681976504948e-06 3.9515952022599877e-08 0.0000000000000000e+00  -2.8903141471309003e-06 3.1964037210945902e-08 0.0000000000000000e+00  7.2398206814000798e-01 -4.3734431127319284e-02 0.0000000000000000e+00  8.5369715808920843e-01 7.7153724722202098e-03 0.0000000000000000e+00  8.7875603545487746e-01 -4.1736493382569285e-05 0.0000000000000000e+00  9.2769909460852129e-01 4.0399247383720444e-03 0.0000000000000000e+00  1.6560020281311052e+00 -6.9619134277830091e-02 0.0000000000000000e+00  4.9097217601856312e-03 -1.3431527200595718e-02 0.0000000000000000e+00  3.5754837769723651e-02 -3.4792890233294738e-02 0.0000000000000000e+00  1.2102686469474813e+00 3.3899149253561349e-02 0.0000000000000000e+00  9.7849288435497339e-01 7.8076070836786228e-05 0.0000000000000000e+00  1.1145800102945982e+00 1.7164414729464329e-02 0.0000000000000000e+00  1.2744828515255417e+00 -2.2272682516693131e-02 0.0000000000000000e+00  8.1593600608590544e-01 9.1977885764918839e-03 0.0000000000000000e+00  1.1877153237901501e+00 3.5723098795364130e-03 0.0000000000000000e+00  1.1776670153759923e+00 2.7931707221954784e-02 0.0000000000000000e+00  1.3155992405058892e+00 1.7531161286953392e-02 0.0000000000000000e+00  1.2414148336716346e+00 1.4440142405996980e-02 0.0000000000000000e+00  8.6246094528499107e-01 -1.4559059210223950e-03 0.0000000000000000e+00  9.2315362997340278e-01 -2.2965493212300989e-04 0.0000000000000000e+00  8.7723363529075249e-01 -2.2457990412888332e-02 0.0000000000000000e+00  8.0730962334118528e-01 2.8867262070947143e-03 0.0000000000000000e+00  2.3182763675649815e-01 5.1269400641627251e-02 0.0000000000000000e+00  1.2299788462178167e+00 -7.2193818064001297e-02 0.0000000000000000e+00  9.7446746089530611e-01 -7.0660997180173296e-02 0.0000000000000000e+00  1.0976424748311351e+00 -1.0562136303947382e-01 0.0000000000000000e+00  1.5513052323260059e+00 -1.6388845009705336e-01 0.0000000000000000e+00  1.2497401327658386e+00 -4.2422885331465723e-03 0.0000000000000000e+00  1.5335974723900663e+00 -2.6243657271274548e-02 0.0000000000000000e+00  1.4841816499849845e+00 3.2062450937434303e-02 0.0000000000000000e+00  1.3056405752476141e+00 -1.5035919223378647e-02 0.0000000000000000e+00  1.4295504450955121e+00 -1.0676816447196984e-01 0.0000000000000000e+00  1.4820296483417377e+00 -1.0194667780380122e-01 0.0000000000000000e+00  1.0219294561326544e+00 -2.7006848959636169e-02 0.0000000000000000e+00  8.0031061199773212e-02 -5.4924904116178681e-02 0.0000000000000000e+00  2.8545376644054377e-01 2.3553730210426858e-02 0.0000000000000000e+00  1.3936418767135805e+00 -8.2706356348864057e-04 0.0000000000000000e+00  9.5840623821022208e-01 3.0692891569176518e-03 0.0000000000000000e+00  1.2487189338461548e+00 2.3735944035243210e-02 0.0000000000000000e+00  1.4030147897939806e+00 -1.4699701266029777e-02 0.0000000000000000e+00  7.9222789959236373e-01 1.6737267640785890e-02 0.0000000000000000e+00  8.9700111993185949e-01 5.7942142310039050e-03 0.0000000000000000e+00  1.3889985663008031e+00 -9.9584666701346101e-03 0.0000000000000000e+00  1.0064913124591819e+00 5.4999155919271368e-02 0.0000000000000000e+00  8.8116902816613285e-01 1.4283473143357499e-03 0.0000000000000000e+00  6.5624905438903525e-01 8.5657529540138918e-08 0.0000000000000000e+00  1.0816412763947123e+00 5.0469034621011565e-02 0.0000000000000000e+00  1.5680455328686898e+00 3.7314416520025630e-02 0.0000000000000000e+00  1.5763848638496594e+00 -4.4626699883426019e-02 0.0000000000000000e+00  1.0432030348663288e+00 1.2809277732636309e-01 0.0000000000000000e+00  1.0709221228249151e+00 7.1395143933888211e-02 0.0000000000000000e+00  7.4865062732630616e-01 5.7261217934488130e-04 0.0000000000000000e+00  8.0517888428303586e-01 8.7034849348359061e-02 0.0000000000000000e+00  1.5024957186612260e+00 -1.3601075815348472e-02 0.0000000000000000e+00  1.6549285851852946e+00 1.7112973754095603e-01 0.0000000000000000e+00  1.3276856304878515e+00 -7.2127230335138045e-03 0.0000000000000000e+00  1.4876341438976155e+00 2.2971206818489086e-03 0.0000000000000000e+00  1.6078583993233100e+00 -1.7260771186336302e-02 0.0000000000000000e+00  1.4988961850249334e+00 -1.3791363381830010e-01 0.0000000000000000e+00  1.1313076446580670e+00 -2.7195822738368351e-02 0.0000000000000000e+00  1.3636052614583472e+00 -5.7000137753990560e-03 0.0000000000000000e+00  1.2728646913441368e+00 -1.0702961097984806e-02 0.0000000000000000e+00  7.9526467879418905e-01 6.9407441177170856e-04 0.0000000000000000e+00  1.5880767746961848e+00 5.7488406548401094e-02 0.0000000000000000e+00  9.4150130018540246e-01 9.3620827517515229e-02 0.0000000000000000e+00  1.4042210918080735e+00 1.6372233597507550e-02 0.0000000000000000e+00  1.2233651308561730e+00 1.6060285107852731e-01 0.0000000000000000e+00  8.7237606649080646e-01 -5.1540750883537281e-03 0.0000000000000000e+00  1.1885991312442630e+00 -8.2252217863410405e-03 0.0000000000000000e+00  1.3609429654815768e+00 9.6608429189924572e-02 0.0000000000000000e+00  1.5116758758896733e+00 1.8612743713531006e-02 0.0000000000000000e+00  1.3043927789669361e+00 1.4781065281259574e-04 0.0000000000000000e+00  1.4650050148701721e+00 -8.7550562894525841e-03 0.0000000000000000e+00  1.2774996252358868e+00 3.4118539122429624e-03 0.0000000000000000e+00  1.4532742040169537e+00 1.8584150319941922e-03 0.0000000000000000e+00  6.6348388739666497e-01 -9.0316956651086621e-04 0.0000000000000000e+00  6.3685978631951068e-01 -5.6981298839976968e-03 0.0000000000000000e+00  7.4214725167689855e-01 9.1556643428461863e-03 0.0000000000000000e+00  8.3127779775168587e-01 5.9307509715815117e-03 0.0000000000000000e+00  1.3370391301205105e+00 7.4492543253419355e-03 0.0000000000000000e+00  7.2207146994682525e-01 -1.2966687509742437e-03 0.0000000000000000e+00  1.2637245949651486e+00 -3.4602803756651444e-03 0.0000000000000000e+00  1.3908162679209235e+00 1.3595512796633880e-03 0.0000000000000000e+00  7.8827072162465528e-01 3.0911820976712752e-03 0.0000000000000000e+00  8.2064907843237023e-01 4.1595568821637854e-02 0.0000000000000000e+00  1.2769938924933379e+00 2.7290722514526685e-03 0.0000000000000000e+00  1.3606878204123249e+00 2.9654376898631553e-03 0.0000000000000000e+00  5.5048522923139453e-01 2.2871432920134895e-03 0.0000000000000000e+00  1.3606648077861738e+00 -9.0446727219116885e-03 0.0000000000000000e+00  7.5827772448825292e-01 -7.7656430354628271e-03 0.0000000000000000e+00  7.8388434674590990e-01 -5.2975144748457666e-03 0.0000000000000000e+00  7.3880712794426817e-01 -7.9171471449264716e-02 0.0000000000000000e+00  1.1968423415338862e+00 -5.5518021152184981e-02 0.0000000000000000e+00  6.4814693868993489e-01 4.0341748058118970e-03 0.0000000000000000e+00  1.5337752435882792e+00 3.1582846278810889e-02 0.0000000000000000e+00  1.5284068172898713e+00 4.7608607260028779e-01 0.0000000000000000e+00  1.0046247777221129e+00 1.8217689247486099e-01 0.0000000000000000e+00  7.5195279837088380e-01 1.9184865576409959e-03 0.0000000000000000e+00  1.3189581777292523e+00 -1.2565600613371788e-01 0.0000000000000000e+00  1.4488916816621082e+00 -5.4608755276428722e-01 0.0000000000000000e+00  6.9051096632399989e-01 5.6137497804213546e-03 0.0000000000000000e+00  7.7640222964982697e-01 5.6413108302500554e-04 0.0000000000000000e+00  1.5067879755943647e+00 -1.3257507961155589e-02 0.0000000000000000e+00  3.8896800070203508e-01 7.6846126288242111e-02 0.0000000000000000e+00  1.4062539930973526e+00 1.2719638376703909e-07 0.0000000000000000e+00  1.3751218948218313e+00 -1.4064452592100200e-02 0.0000000000000000e+00  7.4149728251520419e-01 -1.4401170692328205e-04 0.0000000000000000e+00  1.4062505922051869e+00 4.0582542082390014e-08 0.0000000000000000e+00  7.4524672386337765e-01 3.0244328587443131e-03 0.0000000000000000e+00  1.8372434512257896e+00 -3.2983986219903277e-01 0.0000000000000000e+00  1.4519055689165923e+00 3.2472180466206406e-03 0.0000000000000000e+00  7.1442957092712245e-01 9.8570387869772569e-02 0.0000000000000000e+00  1.3334071479864682e+00 -1.6240525749682867e-02 0.0000000000000000e+00  6.9248703460888628e-01 -3.2145075435438784e-03 0.0000000000000000e+00  5.1914664237592589e-01 -1.6539991244727337e-03 0.0000000000000000e+00  1.4131346044684301e+00 8.1005077264893494e-03 0.0000000000000000e+00  4.8566666824199534e-01 -4.5404742223649642e-03 0.0000000000000000e+00  6.6068569623731654e-01 -3.0074531139656865e-03 0.0000000000000000e+00  1.3072982428546787e+00 -4.41