<?xml version="1.0"?>
<VTKFile type="UnstructuredGrid"  version="0.1"  >
<UnstructuredGrid>
<Piece  NumberOfPoints="2426" NumberOfCells="4534">
<Points>
<DataArray  type="Float64"  NumberOfComponents="3"  format="ascii">0 0.41 0  0 0 0  2.2 0 0  2.2 0.41 0  0.2404508497187474 0.2293892626146237 0  0.25 0.2 0  0.2404508497187474 0.1706107373853764 0  0.2154508497187474 0.1524471741852423 0  0.1845491502812526 0.1524471741852423 0  0.1595491502812526 0.1706107373853764 0  0.15 0.2 0  0.1595491502812526 0.2293892626146237 0  0.1845491502812527 0.2475528258147577 0  0.2154508497187474 0.2475528258147577 0  0.5404508497187474 0.2293892626146237 0  0.55 0.2 0  0.5404508497187474 0.1706107373853764 0  0.5154508497187473 0.1524471741852423 0  0.4845491502812526 0.1524471741852423 0  0.4595491502812526 0.1706107373853764 0  0.45 0.2 0  0.4595491502812526 0.2293892626146237 0  0.4845491502812526 0.2475528258147577 0  0.5154508497187473 0.2475528258147577 0  1.1 0 0  0 0.205 0  1.1 0.41 0  0.55 0 0  0.55 0.41 0  0.275 0 0  0.275 0.41 0  1.65 0.41 0  1.65 0 0  1.375 0 0  1.375 0.41 0  1.925 0 0  1.925 0.41 0  0.8250000000000001 0.41 0  0.8250000000000001 0 0  1.5125 0.205 0  1.7875 0.205 0  0.9625000000000001 0.205 0  1.2375 0.205 0  2.2 0.205 0  0.7560964076246335 0.2151713709677419 0  1.99375 0.2152743902439024 0  2.0625 0 0  0.6875 0 0  2.0625 0.41 0  2.2 0.3075 0  0.6875 0.41 0  1.7875 0.41 0  1.375 0.1486128048780488 0  1.5125 0 0  1.7875 0 0  1.5125 0.41 0  0.9625000000000001 0 0  0.9625000000000001 0.41 0  0.4125 0 0  0.1375 0 0  0.1375 0.41 0  0.4125 0.41 0  1.2375 0 0  1.1 0.1486128048780487 0  1.2375 0.41 0  1.65 0.1486128048780487 0  1.126715909090909 0.2793064024390244 0  1.676715909090909 0.2793064024390244 0  1.348284090909091 0.2793064024390244 0  0.34375 0.3032389320646208 0  1.894702181800738 0.1282910975492754 0  2.092797818199262 0.1282910975492754 0  1.85625 0.3075 0  0.8630851210521902 0.286932093388664 0  0.89375 0.1025 0  0.35 0.1090282786671641 0  0 0.3075 0  0 0.1025 0  0.6526217841291382 0.288229645480046 0  0.7562500000000001 0.09660248895515888 0  0.6568633732316684 0.1557582854763441 0  2.099172119769978 0.25625 0  1.002356446954348 0.1010393851523063 0  1.99375 0.08395950269330846 0  1.459960956013612 0.3075 0  1.569025960719943 0.2986889805672169 0  1.03125 0.3278689922742084 0  0.75625 0.3247156761655783 0  1.959375 0.3126371951219512 0  1.749222215368287 0.1025 0  1.275777784631713 0.1025 0  2.2 0.1025 0  1.225938124459196 0.3075 0  1.550777784631713 0.1025 0  1.44375 0.07430640243902442 0  1.16875 0.07430640243902437 0  0.3528655045338512 0.2063263890916129 0  0.5890337614812103 0.08775733857679162 0  0.8504912436891263 0.190072835691683 0  1.899250267340833 0.2229966846119207 0  0.1020898364287272 0.3140258291809757 0  1.766482954545455 0.2934032012195123 0  1.051658316544432 0.2265720188842194 0  0.2 0.3400647632937836 0  1.421109702350723 0.2261157654379721 0  0.4812500000000001 0.41 0  0.4324401666997539 0.3216425986889796 0  0.098916018031319 0.09171660955420841 0  0.9508742791313441 0.2921736960864468 0  2.13125 0 0  2.118919042110979 0.3422084711244843 0  1.30625 0.41 0  0.20625 0 0  1.597888256393107 0.2173787389261347 0  0.4812500000000001 0 0  0.4324082967851086 0.08384041677422771 0  1.829299675393195 0.07400700849299596 0  0.568219932524165 0.3212274660843853 0  1.71875 0.41 0  0.268005226542646 0.08512186835670006 0  1.16875 0.41 0  2.038220665644273 0.332420740103091 0  0.6678017527842831 0.07701763866051195 0  0.89375 0.41 0  0.5111435174287687 0.07335351331957608 0  0.176193934632343 0.0734896648625108 0  0.07390688010811153 0.1697064032433452 0  0.05452951551825875 0.25625 0  0.61875 0.41 0  1.452769549894695 0.1548122580621249 0  1.369219062229598 0.07430640243902442 0  1.30625 0 0  1.720943423819132 0.1714577452753128 0  1.157188124459196 0.205 0  1.094219062229598 0.07430640243902437 0  1.304056576180868 0.1714577452753128 0  1.67579304192913 0.07430640243902437 0  0.2672907219039591 0.3037570723459566 0  1.209670467133757 0.1362100266964769 0  1.58125 0 0  1.03125 0 0  0.06875000000000001 0.41 0  0 0.35875 0  1.58125 0.41 0  1.631724228912893 0.3381867502687533 0  0.8240147050827157 0.1225233169495944 0  1.825608881788174 0.14499488549201 0  1.85625 0 0  1.44375 0 0  1.44375 0.41 0  1.85625 0.41 0  2.13125 0.41 0  0.7562500000000001 0.41 0  0.7562500000000001 0 0  0.89375 0 0  0.34375 0 0  0.34375 0.41 0  0.20625 0.41 0  0.06875000000000001 0 0  1.16875 0 0  1.03125 0.41 0  0.61875 0 0  1.71875 0 0  1.99375 0 0  1.99375 0.41 0  0.3972301426712326 0.2593842555611471 0  1.340625 0.3489494290853124 0  1.134375 0.3489494290853123 0  1.700180620188976 0.3438659752031281 0  0.5003922072260507 0.341765274319271 0  0.6212513815748759 0.2209216137134851 0  0.6885607720119526 0.215393731583638 0  1.033412357328477 0.1612902025713047 0  2.135782184673599 0.07126652247502523 0  1.668441847249787 0.2129203728327609 0  1.295782514339747 0.2378437748815763 0  1.409375 0.3520314716057996 0  2.129248544730567 0.1906135162504124 0  2.060771381434487 0.1989445750470348 0  2.013252586573865 0.1496169464686054 0  1.942766402200229 0.1734448904596831 0  1.895522487186454 0.06076163953489683 0  2.069553871656643 0.06605731020975725 0  0.9281250000000001 0.3539050257418612 0  1.274680914880868 0.3520219391081363 0  0.3030138498135347 0.2488370856812789 0  0.8223773249563684 0.341761430177996 0  0.9018164060227267 0.2326477848736739 0  0.8143027982392851 0.2440265179987191 0  0.7225087161029304 0.2699907246386231 0  1.614713220494657 0.09473434380863296 0  0.378125 0.3566194660323104 0  0.309375 0.3566194660323104 0  1.72990325744076 0.2380068107952482 0  0.6915936999299305 0.3429472631234433 0  0.6268087624932918 0.3466455500035671 0  1.356580098625191 0.2120393231351682 0  0.3060160055995138 0.1590148921620778 0  0.3954648733249218 0.156380553890791 0  2.034370752044885 0.2668681600792073 0  1.51768709249349 0.3426260931494756 0  1.561883724969884 0.1650446847858835 0  1.197344062229598 0.2523725417393646 0  0.9281250000000001 0.05124999999999999 0  1.804085235518364 0.3468178408964637 0  1.817887819205233 0.2589243285818559 0  0.9107805776841645 0.1653834539923287 0  1.905897727272727 0.3485060975609756 0  0 0.05125 0  0.844212276491354 0.0614201194265309 0  0.378125 0.05244637078450034 0  1.008571329007178 0.2705955969954818 0  0.7724048032149464 0.1559079561351474 0  0.7203054377831548 0.04941826955193545 0  1.192836486056382 0.3562350748565544 0  0.5967108020713719 0.1479294686523888 0  1.28257088594801 0.2944411014911587 0  0.7041890234548132 0.1222025174424443 0  1.474860187679412 0.2504218616229368 0  1.406767003493824 0.2829282258560709 0  0.3201325899091991 0.05890121548989159 0  0.5979220912872258 0.2727591995766724 0  1.845656689180403 0.1998310418452388 0  2.144958525570388 0.2909790873294231 0  2.2 0.15375 0  1.57794966442982 0.3540357145964566 0  0.9483181579620558 0.1214693369582054 0  0.0496154796471391 0.333125 0  1.508991196088596 0.1421783375065625 0  0.09776612425612034 0.2204896805326566 0  1.50436820029908 0.06143401634903343 0  1.223857000523521 0.0823554862453532 0  0.2531953886959507 0.3582003209055908 0  1.153316824384777 0.1289850171317837 0  2.148922302309752 0.1258841779285271 0  1.621993280276081 0.2841214267927899 0  1.550118654119087 0.2461998729100966 0  1.327182649291491 0.1216967252533594 0  1.753125 0.04556020050186112 0  1.271875 0.04556020050186116 0  0.9824282234771738 0.05051969257615314 0  1.039510847866381 0.05683351822678641 0  1.94956388244759 0.1180512551534177 0  1.949997712993411 0.04965831614304109 0  1.771961817615021 0.1530278789497521 0  1.909246823951428 0.2812757146784527 0  1.101974016627944 0.2038045618205013 0  0.7906250000000001 0.0444674049654372 0  1.948575539857022 0.2445328248721197 0  1.697271520964565 0.1233917627620729 0  1.065625 0.3689344961371042 0  1.085849084308977 0.3170853572226867 0  0.9840604787624379 0.3582077516409966 0  1.577403511714593 0.05463601888079143 0  0.05622663515370135 0.05493816910862376 0  0.8762396958822678 0.3392249777398821 0  1.751571320346033 0.3651102912045228 0  1.055327852410105 0.111864799513911 0  0.1583785085108421 0.2994699345738728 0  0.1455283439499995 0.3542795598723423 0  2.2 0.35875 0  0.225705107073232 0.05084786997482401 0  0.1455852234589313 0.1166494778469164 0  1.466879772203159 0.3611261772912453 0  1.990280163552011 0.3564754268533217 0  1.17471064520912 0.2990917256188288 0  0.7221925551074015 0.1739659241003985 0  0 0.25625 0  2.2 0.25625 0  2.2 0.05125 0  0 0.15375 0  1.853978576207987 0.35875 0  0.21965520498276 0.1015543880164422 0  1.515638456102889 0.2882700110184686 0  0.09048297387599738 0.3637717362208066 0  2.150453692751374 0.2387066338105111 0  1.323782677156475 0.04897634338873398 0  1.409375 0.03715320121951221 0  1.406484531114799 0.1087852750766809 0  1.134375 0.03715320121951218 0  1.627401732573545 0.04552157221025036 0  0.446875 0.3713289093361426 0  2.045405893604797 0.1105340662939892 0  1.255408269734577 0.1577307500159216 0  2.028125 0.03707597992059326 0  0.04420832937638274 0.128125 0  0.5817551710628505 0.3702615006034757 0  0.1197849154434487 0.2663398672460083 0  1.248258025468107 0.2565907092181813 0  0.1300647302703173 0.0508462728378621 0  0.7738123537510222 0.2761231499240648 0  1.203125 0.0366132337404304 0  0.5444207041612499 0.111205399508622 0  0.8016457771828226 0.1964238426015905 0  2.072662025974815 0.2975086504196739 0  0.4019040438866802 0.2103993403217561 0  0.4677372330974851 0.04827477407630658 0  0.8677218578847617 0.1432970430140788 0  1.058011122005847 0.2758866204059919 0  0.4429405887974043 0.2746184809910084 0  0.5843750000000001 0.03726989681835222 0  0.6318596133730142 0.1128692182767254 0  0.4862628454464408 0.2957029785303028 0  0.7805186758662764 0.3673578380827891 0  1.887722846421017 0.1760882698830035 0  0.3498893058880703 0.256189258793856 0  1.472640588990488 0.1118278026240017 0  1.865937103925594 0.2604137786483804 0
[...]
<PointData  Vectors="f_37"> 
<DataArray  type="Float64"  Name="f_37"  NumberOfComponents="3" format="ascii">-6.1337952957589060e-07 2.0344368186304233e-08 0.0000000000000000e+00  3.7353462714124723e-07 -2.9809138882544244e-08 0.0000000000000000e+00  -6.3523550583311176e-07 4.7947866543833954e-09 0.0000000000000000e+00  6.6594314703820518e-07 -2.7988443443473143e-08 0.0000000000000000e+00  -9.9157554617792264e-07 1.0268856867494266e-07 0.0000000000000000e+00  -7.7551910385967489e-07 1.1936364263656909e-07 0.0000000000000000e+00  -1.6566753024436989e-06 3.0228863898858922e-07 0.0000000000000000e+00  1.1937540617131090e-06 2.8329192097918975e-07 0.0000000000000000e+00  2.8846205464858683e-06 -4.9281503130736514e-07 0.0000000000000000e+00  -9.8083069853905703e-07 8.4429288192683829e-08 0.0000000000000000e+00  -1.7467035169023249e-06 1.1304914437896778e-06 0.0000000000000000e+00  6.9303865603192934e-07 2.2168030759283286e-06 0.0000000000000000e+00  -3.7509037421293430e-06 -1.3035093107166945e-06 0.0000000000000000e+00  -3.5680081796370231e-06 -8.4332880676684575e-07 0.0000000000000000e+00  -1.9284350547652277e-06 3.6431082274430482e-07 0.0000000000000000e+00  -1.4370490060110479e-06 1.3426076954927611e-06 0.0000000000000000e+00  -3.8755387332192250e-06 8.8076079926302733e-09 0.0000000000000000e+00  -3.2433419619444439e-06 -1.5964245811835421e-07 0.0000000000000000e+00  -2.3209989760128173e-06 -9.3545537166744733e-08 0.0000000000000000e+00  -1.4184772122594436e-06 -8.6055352259122564e-08 0.0000000000000000e+00  -1.0637122511557136e-06 1.3783341259894573e-07 0.0000000000000000e+00  -1.0876109905874904e-06 1.4982439067140764e-07 0.0000000000000000e+00  -1.6024631891813486e-07 2.3548842104025062e-07 0.0000000000000000e+00  -1.0706738324722367e-07 1.1304520004089134e-07 0.0000000000000000e+00  3.4476948211565855e-07 1.3846876854037017e-07 0.0000000000000000e+00  1.5000025238785351e+00 2.2425936615281396e-08 0.0000000000000000e+00  -2.3699115824669284e-06 4.3644326100648083e-08 0.0000000000000000e+00  -2.2285357184232726e-06 -9.9246077610785349e-08 0.0000000000000000e+00  -9.8952997224079908e-07 3.8207187789819719e-08 0.0000000000000000e+00  -2.6722068391446592e-06 9.3680688014124999e-08 0.0000000000000000e+00  -1.0436510861769618e-06 -2.3254411768447308e-08 0.0000000000000000e+00  1.6759234522464564e-06 7.2732455023387164e-09 0.0000000000000000e+00  -6.6157083787667860e-07 7.1064568062735786e-09 0.0000000000000000e+00  2.8608321032273452e-06 -2.0325545901883507e-07 0.0000000000000000e+00  2.4314770428983825e-07 -2.1462093280901087e-07 0.0000000000000000e+00  5.0918267061946840e-07 3.1579418873446838e-08 0.0000000000000000e+00  -1.0383665125227995e-06 1.1323784941397498e-08 0.0000000000000000e+00  1.3604944808469002e-07 1.3237174492034729e-07 0.0000000000000000e+00  -3.1432400149698048e-06 6.0520593987747721e-08 0.0000000000000000e+00  1.0327745053400121e+00 4.2270916325859526e-02 0.0000000000000000e+00  1.1209046435172711e+00 -4.0287971647698220e-02 0.0000000000000000e+00  6.1058898777047244e-01 -2.4274349259112048e-02 0.0000000000000000e+00  9.1865528836200372e-01 -1.5806556857751588e-02 0.0000000000000000e+00  1.2171838968364408e+00 -4.5462901471171054e-02 0.0000000000000000e+00  2.2225126747545462e-01 -3.2468867093874185e-02 0.0000000000000000e+00  1.1981767463082116e+00 4.3757884685911359e-02 0.0000000000000000e+00  -1.6027911473966921e-06 2.5550621665089625e-08 0.0000000000000000e+00  -1.1126092901500737e-06 -7.4306223537996463e-08 0.0000000000000000e+00  3.1683496529202792e-07 4.7523864136049551e-08 0.0000000000000000e+00  1.2562085959345624e+00 3.6028440191983413e-03 0.0000000000000000e+00  -7.2311747919934613e-07 4.0021537842633856e-08 0.0000000000000000e+00  -1.8117445692959975e-06 -1.0232044893600647e-07 0.0000000000000000e+00  1.3801930609307793e+00 1.5843403608094799e-02 0.0000000000000000e+00  1.6114570085155827e-06 1.1645298900712911e-07 0.0000000000000000e+00  -2.8345068212356045e-08 -1.1103917639997340e-07 0.0000000000000000e+00  2.7307672618161873e-07 1.8185107325388426e-07 0.0000000000000000e+00  -1.2450494322790699e-06 -1.0623495987016325e-07 0.0000000000000000e+00  -1.0247975574778844e-07 -4.8485408139589241e-08 0.0000000000000000e+00  -8.0326569773521356e-07 -2.4140922010107762e-08 0.0000000000000000e+00  2.9438576267791595e-07 6.5647796569655076e-08 0.0000000000000000e+00  6.0634762415943064e-07 1.3425674870291489e-07 0.0000000000000000e+00  -2.6766863595856635e-06 1.1159658532726930e-07 0.0000000000000000e+00  -7.8264511513595662e-07 8.1102551032334564e-08 0.0000000000000000e+00  1.3962063075905711e+00 3.3368947184816623e-02 0.0000000000000000e+00  1.2658950304661883e-06 1.0722755380127852e-07 0.0000000000000000e+00  1.2626183060352942e+00 -3.0159284984258624e-03 0.0000000000000000e+00  1.5881842566525939e+00 -2.4349353922918912e-02 0.0000000000000000e+00  1.4526112589529105e+00 -8.0934114966509652e-03 0.0000000000000000e+00  1.4971308001213386e+00 3.7763120848605587e-03 0.0000000000000000e+00  1.9608021371360556e+00 2.9585149830588853e-02 0.0000000000000000e+00  1.3659041125685638e+00 1.3066555871236870e-02 0.0000000000000000e+00  1.2853474366341653e+00 -6.1507248902448602e-03 0.0000000000000000e+00  1.3064184917056645e+00 7.4936690425365644e-04 0.0000000000000000e+00  1.6657979559932534e+00 -1.1155241311008267e-01 0.0000000000000000e+00  1.5598943780073882e+00 7.3858235152312976e-02 0.0000000000000000e+00  1.8645204208992388e+00 9.4764998342567550e-03 0.0000000000000000e+00  1.1249986000559977e+00 -1.6974706986791697e-07 0.0000000000000000e+00  1.1250027078805285e+00 1.9154257500486086e-08 0.0000000000000000e+00  1.7684484944280321e+00 -1.6273504029181410e-01 0.0000000000000000e+00  1.6412383915825011e+00 1.3733872064908947e-01 0.0000000000000000e+00  7.4698673734032728e-01 1.0749461826697858e-01 0.0000000000000000e+00  1.4159869089593862e+00 -2.3924435480333621e-02 0.0000000000000000e+00  1.4846918462678225e+00 4.0633018793361272e-02 0.0000000000000000e+00  1.1073715040286614e+00 -3.7480853265983727e-04 0.0000000000000000e+00  1.3745068381027881e+00 -2.9381529336978305e-05 0.0000000000000000e+00  1.4259266447826031e+00 -1.3605101965742793e-02 0.0000000000000000e+00  1.2465778040034168e+00 -1.4530410124784397e-02 0.0000000000000000e+00  1.5525834304586856e+00 -1.2272123003833950e-01 0.0000000000000000e+00  1.2703531748218502e+00 -7.0522590876896420e-03 0.0000000000000000e+00  1.3106089301502273e+00 8.0541985170230739e-03 0.0000000000000000e+00  1.4020412199240357e+00 3.8121555491188791e-03 0.0000000000000000e+00  1.2477979093252669e+00 7.4812606576993923e-03 0.0000000000000000e+00  1.4132057680400583e+00 -9.7428282560811982e-03 0.0000000000000000e+00  1.3127005179120006e+00 -5.9937250719076535e-03 0.0000000000000000e+00  1.0444286987294411e+00 -6.4501681167596185e-03 0.0000000000000000e+00  1.0886696228679222e+00 -7.7529988506560201e-03 0.0000000000000000e+00  -3.3039939179019989e-01 -1.5337992966411803e-02 0.0000000000000000e+00  1.7800647005334447e+00 1.2399107336976931e-01 0.0000000000000000e+00  4.0420851640743261e-01 1.8024768372278184e-02 0.0000000000000000e+00  1.1633167626947056e+00 3.2432163779192620e-02 0.0000000000000000e+00  1.1818617376237612e+00 2.5546607402615146e-01 0.0000000000000000e+00  1.3711830212760339e+00 8.6976489827574038e-03 0.0000000000000000e+00  9.6062132396227684e-01 -1.4546002178325797e-02 0.0000000000000000e+00  1.3810522100924758e+00 2.1760386396886466e-01 0.0000000000000000e+00  1.0820130713291363e+00 -3.1184745219972202e-03 0.0000000000000000e+00  8.8127408662606805e-07 -1.8809152323246899e-08 0.0000000000000000e+00  1.8387123008723119e+00 -6.1223501131057706e-02 0.0000000000000000e+00  1.1435614660349178e+00 -2.5637068890847764e-01 0.0000000000000000e+00  1.6075242612561775e+00 -5.6558836186567200e-02 0.0000000000000000e+00  -1.1561934753832555e-06 5.7514360718436587e-08 0.0000000000000000e+00  9.4600813123122318e-01 4.0112413709205031e-03 0.0000000000000000e+00  -1.2404377252097893e-06 -1.9649414556834657e-07 0.0000000000000000e+00  -6.9362328810277445e-06 2.7351902208765603e-07 0.0000000000000000e+00  1.1446499721926640e+00 8.1864027594754710e-03 0.0000000000000000e+00  9.2082734987851265e-07 -3.4620876933995255e-08 0.0000000000000000e+00  1.8263863053961773e+00 7.8143572702915970e-02 0.0000000000000000e+00  1.0151674200986329e+00 -6.2392794149543406e-04 0.0000000000000000e+00  1.7919013190531397e+00 -1.1308031059866089e-01 0.0000000000000000e+00  -2.2283704971017195e-06 -1.1983237269989418e-07 0.0000000000000000e+00  1.7978777293182227e+00 -1.4136897316436756e-01 0.0000000000000000e+00  -2.6073257820660861e-07 2.1435279236592395e-07 0.0000000000000000e+00  1.0522582717912810e+00 6.5751584806647526e-05 0.0000000000000000e+00  1.6009371854067060e+00 1.3045687166236905e-01 0.0000000000000000e+00  -1.3019552635204022e-06 6.5855507608609997e-08 0.0000000000000000e+00  1.7226079828775318e+00 7.5044452668379863e-02 0.0000000000000000e+00  1.3596316968029194e+00 -3.0230842511046646e-01 0.0000000000000000e+00  1.3399792666467547e+00 -1.2281390319853734e-01 0.0000000000000000e+00  1.3729766208711389e+00 1.2468127633812601e-01 0.0000000000000000e+00  -2.3769127287880935e-07 -2.1371135663230530e-10 0.0000000000000000e+00  1.3382875265864262e+00 2.6116686125032935e-02 0.0000000000000000e+00  1.0587386999819168e+00 1.5715552125201827e-04 0.0000000000000000e+00  1.3388810248729757e-07 -2.2556607363121377e-07 0.0000000000000000e+00  1.1598145167979295e+00 -3.3664489444778768e-02 0.0000000000000000e+00  8.4893917710521405e-01 1.5875427823584871e-02 0.0000000000000000e+00  1.1018265131331737e+00 9.3686836358881206e-06 0.0000000000000000e+00  1.0971593604276082e+00 -1.1550672436869604e-02 0.0000000000000000e+00  1.0442573962953847e+00 8.5169340319804694e-04 0.0000000000000000e+00  1.9203198881676951e+00 1.8450565622985854e-01 0.0000000000000000e+00  1.4424892392823980e+00 3.2275638817785561e-03 0.0000000000000000e+00  1.8138777860043997e-06 8.0640273577808816e-08 0.0000000000000000e+00  1.2113307340136297e-06 -1.2078977903386698e-07 0.0000000000000000e+00  -8.0199719163170424e-07 -5.6597888965650494e-08 0.0000000000000000e+00  6.5625203814090172e-01 1.6881629673556374e-08 0.0000000000000000e+00  5.3236129729330578e-07 1.5940097532599289e-07 0.0000000000000000e+00  9.9507290541342153e-01 5.7262426812741633e-03 0.0000000000000000e+00  1.6184790406141030e+00 1.1782895555244938e-01 0.0000000000000000e+00  1.3838968645321321e+00 1.9253288185486894e-02 0.0000000000000000e+00  2.6531341697312925e-07 2.5607148905581201e-08 0.0000000000000000e+00  -1.9382954049642123e-06 3.8830769973912965e-08 0.0000000000000000e+00  -1.8584828971140269e-06 -6.4932922895685724e-08 0.0000000000000000e+00  -2.0799289441069635e-06 -4.3921261631634077e-08 0.0000000000000000e+00  -7.1683371679319932e-07 -1.4057734730377327e-07 0.0000000000000000e+00  -6.3581675422454453e-07 3.1656950281998187e-08 0.0000000000000000e+00  -2.2324922255364008e-06 -1.2557741143163139e-07 0.0000000000000000e+00  -1.9067443967608037e-06 1.9350324969653972e-08 0.0000000000000000e+00  1.4656068696446931e-07 -6.2487340371465305e-10 0.0000000000000000e+00  4.1228044540976697e-07 1.7648651403921236e-08 0.0000000000000000e+00  1.1881118844010523e-06 -8.4167656151795463e-08 0.0000000000000000e+00  -8.2338164033619852e-07 1.4424547644361581e-07 0.0000000000000000e+00  -2.2592857707569217e-07 1.4587103615657115e-07 0.0000000000000000e+00  -2.6408265740058897e-06 -1.6297799567393766e-07 0.0000000000000000e+00  -2.5507911570616363e-06 -2.0819156098620936e-07 0.0000000000000000e+00  -2.8827224369429705e-06 -7.4871102337944926e-08 0.0000000000000000e+00  -1.1136489333333026e-06 -3.5233539869840519e-08 0.0000000000000000e+00  -2.2941839119390705e-06 1.3388537608643285e-07 0.0000000000000000e+00  7.2470427393632875e-01 -4.4017218191485449e-02 0.0000000000000000e+00  8.6031721858418575e-01 1.0094165439118379e-02 0.0000000000000000e+00  8.7474240720911112e-01 -3.2025015431247847e-03 0.0000000000000000e+00  9.2935366153217502e-01 9.0679490405213056e-03 0.0000000000000000e+00  1.6554440973509141e+00 -6.9519556588287026e-02 0.0000000000000000e+00  3.1086718028071900e-03 -1.3377447895420481e-02 0.0000000000000000e+00  3.4586072592478409e-02 -2.8196781584367191e-02 0.0000000000000000e+00  1.2246551076030754e+00 4.5908712515233416e-02 0.0000000000000000e+00  9.7836321151535455e-01 9.9422548022692100e-04 0.0000000000000000e+00  1.1560468080181439e+00 -2.9972435791865593e-02 0.0000000000000000e+00  1.2610010563155509e+00 -3.1721337345162685e-02 0.0000000000000000e+00  8.2192830434471398e-01 5.9885100824802620e-03 0.0000000000000000e+00  1.1985773572794765e+00 -4.0008581918207900e-02 0.0000000000000000e+00  1.1943450313867152e+00 3.3187146141385928e-03 0.0000000000000000e+00  1.2664999567707000e+00 2.1316701910851877e-02 0.0000000000000000e+00  1.2459335144407009e+00 4.3873215891626523e-02 0.0000000000000000e+00  8.5991771617007517e-01 -2.1765559688422869e-03 0.0000000000000000e+00  9.2200872965087299e-01 -6.4498689914732241e-04 0.0000000000000000e+00  8.7699532841898176e-01 -2.0310248543252005e-02 0.0000000000000000e+00  8.0681486568196747e-01 7.5256495384074269e-03 0.0000000000000000e+00  2.3194414913727887e-01 5.1456844632100006e-02 0.0000000000000000e+00  1.2280896925505669e+00 -7.3389677952085258e-02 0.0000000000000000e+00  9.7161373208816415e-01 -7.6621408501999874e-02 0.0000000000000000e+00  1.1077444903005180e+00 -1.1293398099391747e-01 0.0000000000000000e+00  1.5534977327855672e+00 -1.6328990893191336e-01 0.0000000000000000e+00  1.2558413840641129e+00 -1.6973600742279827e-03 0.0000000000000000e+00  1.5335211070697803e+00 -2.6385350140153439e-02 0.0000000000000000e+00  1.4841804708104249e+00 3.2033196406652968e-02 0.0000000000000000e+00  1.2928245845018624e+00 -3.2124530838196698e-02 0.0000000000000000e+00  1.4309331354289596e+00 -1.0696236922621169e-01 0.0000000000000000e+00  1.4824168316617869e+00 -1.0130190767930881e-01 0.0000000000000000e+00  9.9389735860904782e-01 -3.1229399989087327e-02 0.0000000000000000e+00  7.9836679470855737e-02 -5.4674705054784972e-02 0.0000000000000000e+00  2.8517864621895300e-01 2.3263450085134984e-02 0.0000000000000000e+00  1.4406027788191167e+00 -2.0123747024213420e-02 0.0000000000000000e+00  9.5186325601771349e-01 -1.3210669527982026e-03 0.0000000000000000e+00  1.1905551367931473e+00 2.9364176380430426e-02 0.0000000000000000e+00  1.4330727112114909e+00 -3.0255895719626062e-02 0.0000000000000000e+00  7.9134174760969667e-01 1.8866045780548370e-02 0.0000000000000000e+00  9.0398488243214192e-01 2.7863974671879883e-03 0.0000000000000000e+00  1.3250194264888142e+00 -4.4769742472476814e-03 0.0000000000000000e+00  1.0137546939817010e+00 5.1195008665003060e-02 0.0000000000000000e+00  8.7834074255581573e-01 -4.6343483968097485e-04 0.0000000000000000e+00  6.5624905499777331e-01 8.6685383253456132e-08 0.0000000000000000e+00  1.0837734138562873e+00 5.0274479216885805e-02 0.0000000000000000e+00  1.5681185950562322e+00 3.7167436903961973e-02 0.0000000000000000e+00  1.5728569092676112e+00 -3.6618608134748841e-02 0.0000000000000000e+00  1.0359677177980837e+00 1.2583247789512580e-01 0.0000000000000000e+00  1.0694821478223311e+00 7.0767325898288047e-02 0.0000000000000000e+00  7.4277382685247528e-01 1.0952187561495295e-03 0.0000000000000000e+00  8.0789619168648796e-01 8.6893932499282400e-02 0.0000000000000000e+00  1.4845168819938745e+00 -3.1178093947547003e-03 0.0000000000000000e+00  1.6534353972364495e+00 1.7246899226793411e-01 0.0000000000000000e+00  1.3163578394219582e+00 8.4332028997300777e-03 0.0000000000000000e+00  1.4792695868765331e+00 8.0320209492551076e-03 0.0000000000000000e+00  1.6078463067232214e+00 -1.7297319669235266e-02 0.0000000000000000e+00  1.4970137610738194e+00 -1.3712768965683758e-01 0.0000000000000000e+00  1.1510647911358993e+00 2.2354666567775362e-03 0.0000000000000000e+00  1.3426403853479927e+00 2.9256199458906002e-03 0.0000000000000000e+00  1.3014208894815393e+00 -1.5498324799735267e-02 0.0000000000000000e+00  7.8601844354088801e-01 1.8204414538647508e-03 0.0000000000000000e+00  1.5947130077403098e+00 6.4711764829621918e-02 0.0000000000000000e+00  9.4149926484579882e-01 9.3613749819281916e-02 0.0000000000000000e+00  1.3772297636391220e+00 1.6101000601411335e-02 0.0000000000000000e+00  1.2233626741169699e+00 1.6057857055056537e-01 0.0000000000000000e+00  8.7516271596607842e-01 -7.5472025673031570e-03 0.0000000000000000e+00  1.1969857111866919e+00 -4.4051139209796107e-03 0.0000000000000000e+00  1.3609318723858768e+00 9.6610213886311996e-02 0.0000000000000000e+00  1.4957583624952469e+00 8.7240742699232054e-03 0.0000000000000000e+00  1.3101205851977806e+00 -6.6838606773188033e-03 0.0000000000000000e+00  1.4736449211105245e+00 -1.5712982717104619e-02 0.0000000000000000e+00  1.3341132848188555e+00 2.0243635684141993e-03 0.0000000000000000e+00  1.4784680738057578e+00 1.2239911353861139e-02 0.0000000000000000e+00  6.6048700054807796e-01 -6.8305712414553992e-04 0.0000000000000000e+00  6.3461088478439021e-01 -2.9086961035453673e-03 0.0000000000000000e+00  7.3876271652687076e-01 1.0349795328993975e-02 0.0000000000000000e+00  8.2751019094843148e-01 4.3548605170624236e-03 0.0000000000000000e+00  1.3141757089229109e+00 4.5974645179188579e-03 0.0000000000000000e+00  7.2079235532677399e-01 -1.3595272525045250e-03 0.0000000000000000e+00  1.3191419082129170e+00 -4.7346290697101489e-03 0.0000000000000000e+00  1.3952403953599561e+00 4.3087889002742970e-03 0.0000000000000000e+00  7.8990232967583052e-01 2.1296333187058848e-02 0.0000000000000000e+00  8.2148667980802159e-01 4.0564327798090140e-02 0.0000000000000000e+00  1.2859203795849972e+00 2.9411909336601504e-02 0.0000000000000000e+00  1.3728480560209639e+00 -3.0870637449206302e-04 0.0000000000000000e+00  5.5094814362938793e-01 5.6330906952202703e-04 0.0000000000000000e+00  1.3665591810255677e+00 -1.5010490308533892e-02 0.0000000000000000e+00  7.6058166216174716e-01 -6.6378503495697974e-03 0.0000000000000000e+00  7.8790600134797517e-01 -3.7416109897239164e-03 0.0000000000000000e+00  7.3881004596187727e-01 -7.9178018512239157e-02 0.0000000000000000e+00  1.1938593993004205e+00 -5.4383590660824654e-02 0.0000000000000000e+00  6.5398281444559758e-01 4.2394604509315512e-03 0.0000000000000000e+00  1.5254008157602470e+00 2.9575513526326452e-02 0.0000000000000000e+00  1.5283923144613500e+00 4.7607743565695310e-01 0.0000000000000000e+00  1.0046105624033907e+00 1.8217157891582098e-01 0.0000000000000000e+00  7.5143812174918856e-01 1.7233017745057961e-03 0.0000000000000000e+00  1.3189736776895815e+00 -1.2565149637497633e-01 0.0000000000000000e+00  1.4489056573779417e+00 -5.4610021795638142e-01 0.0000000000000000e+00  6.8872092511992200e-01 1.8107108150825434e-03 0.0000000000000000e+00  7.7120727434686520e-01 1.0390456183338785e-04 0.0000000000000000e+00  1.5063466884464289e+00 -2.0433470244317912e-02 0.0000000000000000e+00  3.8806130770578995e-01 8.2597841470466560e-02 0.0000000000000000e+00  1.4062539947834751e+00 1.2902342412348237e-07 0.0000000000000000e+00  1.3475266343147303e+00 -1.2979398086439458e-02 0.0000000000000000e+00  7.3825335847350060e-01 7.2827674779776287e-04 0.0000000000000000e+00  1.4062505941922023e+00 4.2412898518699470e-08 0.0000000000000000e+00  7.4548898756753545e-01 8.4977993591573071e-04 0.0000000000000000e+00  1.8372559491619440e+00 -3.2982745755638138e-01 0.0000000000000000e+00  1.4806480117275225e+00 -9.4266746548046596e-03 0.0000000000000000e+00  7.1442237542829690e-01 9.8563649314258109e-02 0.0000000000000000e+00  1.3427938279937710e+00 -2.8596038601448884e-02 0.0000000000000000e+00  6.8664405879973567e-01 -1.5925513926048627e-03 0.0000000000000000e+00  5.1590563767282993e-01 -3.1202297026770047e-03 0.0000000000000000e+00  1.4081979564130007e+00 9.7282407087238496e-03 0.0000000000000000e+00  4.8805833157863826e-01 -5.9335718736590508e-03 0.0000000000000000e+00  6.6038497470135571e-01 -1.7187918136177950e-03 0.0000000000000000e+00  1.3069249236482328e+00 -4.4203695