<?xml version="1.0"?>
<VTKFile type="UnstructuredGrid"  version="0.1"  >
<UnstructuredGrid>
<Piece  NumberOfPoints="2426" NumberOfCells="4534">
<Points>
<DataArray  type="Float64"  NumberOfComponents="3"  format="ascii">0 0.41 0  0 0 0  2.2 0 0  2.2 0.41 0  0.2404508497187474 0.2293892626146237 0  0.25 0.2 0  0.2404508497187474 0.1706107373853764 0  0.2154508497187474 0.1524471741852423 0  0.1845491502812526 0.1524471741852423 0  0.1595491502812526 0.1706107373853764 0  0.15 0.2 0  0.1595491502812526 0.2293892626146237 0  0.1845491502812527 0.2475528258147577 0  0.2154508497187474 0.2475528258147577 0  0.5404508497187474 0.2293892626146237 0  0.55 0.2 0  0.5404508497187474 0.1706107373853764 0  0.5154508497187473 0.1524471741852423 0  0.4845491502812526 0.1524471741852423 0  0.4595491502812526 0.1706107373853764 0  0.45 0.2 0  0.4595491502812526 0.2293892626146237 0  0.4845491502812526 0.2475528258147577 0  0.5154508497187473 0.2475528258147577 0  1.1 0 0  0 0.205 0  1.1 0.41 0  0.55 0 0  0.55 0.41 0  0.275 0 0  0.275 0.41 0  1.65 0.41 0  1.65 0 0  1.375 0 0  1.375 0.41 0  1.925 0 0  1.925 0.41 0  0.8250000000000001 0.41 0  0.8250000000000001 0 0  1.5125 0.205 0  1.7875 0.205 0  0.9625000000000001 0.205 0  1.2375 0.205 0  2.2 0.205 0  0.7560964076246335 0.2151713709677419 0  1.99375 0.2152743902439024 0  2.0625 0 0  0.6875 0 0  2.0625 0.41 0  2.2 0.3075 0  0.6875 0.41 0  1.7875 0.41 0  1.375 0.1486128048780488 0  1.5125 0 0  1.7875 0 0  1.5125 0.41 0  0.9625000000000001 0 0  0.9625000000000001 0.41 0  0.4125 0 0  0.1375 0 0  0.1375 0.41 0  0.4125 0.41 0  1.2375 0 0  1.1 0.1486128048780487 0  1.2375 0.41 0  1.65 0.1486128048780487 0  1.126715909090909 0.2793064024390244 0  1.676715909090909 0.2793064024390244 0  1.348284090909091 0.2793064024390244 0  0.34375 0.3032389320646208 0  1.894702181800738 0.1282910975492754 0  2.092797818199262 0.1282910975492754 0  1.85625 0.3075 0  0.8630851210521902 0.286932093388664 0  0.89375 0.1025 0  0.35 0.1090282786671641 0  0 0.3075 0  0 0.1025 0  0.6526217841291382 0.288229645480046 0  0.7562500000000001 0.09660248895515888 0  0.6568633732316684 0.1557582854763441 0  2.099172119769978 0.25625 0  1.002356446954348 0.1010393851523063 0  1.99375 0.08395950269330846 0  1.459960956013612 0.3075 0  1.569025960719943 0.2986889805672169 0  1.03125 0.3278689922742084 0  0.75625 0.3247156761655783 0  1.959375 0.3126371951219512 0  1.749222215368287 0.1025 0  1.275777784631713 0.1025 0  2.2 0.1025 0  1.225938124459196 0.3075 0  1.550777784631713 0.1025 0  1.44375 0.07430640243902442 0  1.16875 0.07430640243902437 0  0.3528655045338512 0.2063263890916129 0  0.5890337614812103 0.08775733857679162 0  0.8504912436891263 0.190072835691683 0  1.899250267340833 0.2229966846119207 0  0.1020898364287272 0.3140258291809757 0  1.766482954545455 0.2934032012195123 0  1.051658316544432 0.2265720188842194 0  0.2 0.3400647632937836 0  1.421109702350723 0.2261157654379721 0  0.4812500000000001 0.41 0  0.4324401666997539 0.3216425986889796 0  0.098916018031319 0.09171660955420841 0  0.9508742791313441 0.2921736960864468 0  2.13125 0 0  2.118919042110979 0.3422084711244843 0  1.30625 0.41 0  0.20625 0 0  1.597888256393107 0.2173787389261347 0  0.4812500000000001 0 0  0.4324082967851086 0.08384041677422771 0  1.829299675393195 0.07400700849299596 0  0.568219932524165 0.3212274660843853 0  1.71875 0.41 0  0.268005226542646 0.08512186835670006 0  1.16875 0.41 0  2.038220665644273 0.332420740103091 0  0.6678017527842831 0.07701763866051195 0  0.89375 0.41 0  0.5111435174287687 0.07335351331957608 0  0.176193934632343 0.0734896648625108 0  0.07390688010811153 0.1697064032433452 0  0.05452951551825875 0.25625 0  0.61875 0.41 0  1.452769549894695 0.1548122580621249 0  1.369219062229598 0.07430640243902442 0  1.30625 0 0  1.720943423819132 0.1714577452753128 0  1.157188124459196 0.205 0  1.094219062229598 0.07430640243902437 0  1.304056576180868 0.1714577452753128 0  1.67579304192913 0.07430640243902437 0  0.2672907219039591 0.3037570723459566 0  1.209670467133757 0.1362100266964769 0  1.58125 0 0  1.03125 0 0  0.06875000000000001 0.41 0  0 0.35875 0  1.58125 0.41 0  1.631724228912893 0.3381867502687533 0  0.8240147050827157 0.1225233169495944 0  1.825608881788174 0.14499488549201 0  1.85625 0 0  1.44375 0 0  1.44375 0.41 0  1.85625 0.41 0  2.13125 0.41 0  0.7562500000000001 0.41 0  0.7562500000000001 0 0  0.89375 0 0  0.34375 0 0  0.34375 0.41 0  0.20625 0.41 0  0.06875000000000001 0 0  1.16875 0 0  1.03125 0.41 0  0.61875 0 0  1.71875 0 0  1.99375 0 0  1.99375 0.41 0  0.3972301426712326 0.2593842555611471 0  1.340625 0.3489494290853124 0  1.134375 0.3489494290853123 0  1.700180620188976 0.3438659752031281 0  0.5003922072260507 0.341765274319271 0  0.6212513815748759 0.2209216137134851 0  0.6885607720119526 0.215393731583638 0  1.033412357328477 0.1612902025713047 0  2.135782184673599 0.07126652247502523 0  1.668441847249787 0.2129203728327609 0  1.295782514339747 0.2378437748815763 0  1.409375 0.3520314716057996 0  2.129248544730567 0.1906135162504124 0  2.060771381434487 0.1989445750470348 0  2.013252586573865 0.1496169464686054 0  1.942766402200229 0.1734448904596831 0  1.895522487186454 0.06076163953489683 0  2.069553871656643 0.06605731020975725 0  0.9281250000000001 0.3539050257418612 0  1.274680914880868 0.3520219391081363 0  0.3030138498135347 0.2488370856812789 0  0.8223773249563684 0.341761430177996 0  0.9018164060227267 0.2326477848736739 0  0.8143027982392851 0.2440265179987191 0  0.7225087161029304 0.2699907246386231 0  1.614713220494657 0.09473434380863296 0  0.378125 0.3566194660323104 0  0.309375 0.3566194660323104 0  1.72990325744076 0.2380068107952482 0  0.6915936999299305 0.3429472631234433 0  0.6268087624932918 0.3466455500035671 0  1.356580098625191 0.2120393231351682 0  0.3060160055995138 0.1590148921620778 0  0.3954648733249218 0.156380553890791 0  2.034370752044885 0.2668681600792073 0  1.51768709249349 0.3426260931494756 0  1.561883724969884 0.1650446847858835 0  1.197344062229598 0.2523725417393646 0  0.9281250000000001 0.05124999999999999 0  1.804085235518364 0.3468178408964637 0  1.817887819205233 0.2589243285818559 0  0.9107805776841645 0.1653834539923287 0  1.905897727272727 0.3485060975609756 0  0 0.05125 0  0.844212276491354 0.0614201194265309 0  0.378125 0.05244637078450034 0  1.008571329007178 0.2705955969954818 0  0.7724048032149464 0.1559079561351474 0  0.7203054377831548 0.04941826955193545 0  1.192836486056382 0.3562350748565544 0  0.5967108020713719 0.1479294686523888 0  1.28257088594801 0.2944411014911587 0  0.7041890234548132 0.1222025174424443 0  1.474860187679412 0.2504218616229368 0  1.406767003493824 0.2829282258560709 0  0.3201325899091991 0.05890121548989159 0  0.5979220912872258 0.2727591995766724 0  1.845656689180403 0.1998310418452388 0  2.144958525570388 0.2909790873294231 0  2.2 0.15375 0  1.57794966442982 0.3540357145964566 0  0.9483181579620558 0.1214693369582054 0  0.0496154796471391 0.333125 0  1.508991196088596 0.1421783375065625 0  0.09776612425612034 0.2204896805326566 0  1.50436820029908 0.06143401634903343 0  1.223857000523521 0.0823554862453532 0  0.2531953886959507 0.3582003209055908 0  1.153316824384777 0.1289850171317837 0  2.148922302309752 0.1258841779285271 0  1.621993280276081 0.2841214267927899 0  1.550118654119087 0.2461998729100966 0  1.327182649291491 0.1216967252533594 0  1.753125 0.04556020050186112 0  1.271875 0.04556020050186116 0  0.9824282234771738 0.05051969257615314 0  1.039510847866381 0.05683351822678641 0  1.94956388244759 0.1180512551534177 0  1.949997712993411 0.04965831614304109 0  1.771961817615021 0.1530278789497521 0  1.909246823951428 0.2812757146784527 0  1.101974016627944 0.2038045618205013 0  0.7906250000000001 0.0444674049654372 0  1.948575539857022 0.2445328248721197 0  1.697271520964565 0.1233917627620729 0  1.065625 0.3689344961371042 0  1.085849084308977 0.3170853572226867 0  0.9840604787624379 0.3582077516409966 0  1.577403511714593 0.05463601888079143 0  0.05622663515370135 0.05493816910862376 0  0.8762396958822678 0.3392249777398821 0  1.751571320346033 0.3651102912045228 0  1.055327852410105 0.111864799513911 0  0.1583785085108421 0.2994699345738728 0  0.1455283439499995 0.3542795598723423 0  2.2 0.35875 0  0.225705107073232 0.05084786997482401 0  0.1455852234589313 0.1166494778469164 0  1.466879772203159 0.3611261772912453 0  1.990280163552011 0.3564754268533217 0  1.17471064520912 0.2990917256188288 0  0.7221925551074015 0.1739659241003985 0  0 0.25625 0  2.2 0.25625 0  2.2 0.05125 0  0 0.15375 0  1.853978576207987 0.35875 0  0.21965520498276 0.1015543880164422 0  1.515638456102889 0.2882700110184686 0  0.09048297387599738 0.3637717362208066 0  2.150453692751374 0.2387066338105111 0  1.323782677156475 0.04897634338873398 0  1.409375 0.03715320121951221 0  1.406484531114799 0.1087852750766809 0  1.134375 0.03715320121951218 0  1.627401732573545 0.04552157221025036 0  0.446875 0.3713289093361426 0  2.045405893604797 0.1105340662939892 0  1.255408269734577 0.1577307500159216 0  2.028125 0.03707597992059326 0  0.04420832937638274 0.128125 0  0.5817551710628505 0.3702615006034757 0  0.1197849154434487 0.2663398672460083 0  1.248258025468107 0.2565907092181813 0  0.1300647302703173 0.0508462728378621 0  0.7738123537510222 0.2761231499240648 0  1.203125 0.0366132337404304 0  0.5444207041612499 0.111205399508622 0  0.8016457771828226 0.1964238426015905 0  2.072662025974815 0.2975086504196739 0  0.4019040438866802 0.2103993403217561 0  0.4677372330974851 0.04827477407630658 0  0.8677218578847617 0.1432970430140788 0  1.058011122005847 0.2758866204059919 0  0.4429405887974043 0.2746184809910084 0  0.5843750000000001 0.03726989681835222 0  0.6318596133730142 0.1128692182767254 0  0.4862628454464408 0.2957029785303028 0  0.7805186758662764 0.3673578380827891 0  1.887722846421017 0.1760882698830035 0  0.3498893058880703 0.256189258793856 0  1.472640588990488 0.1118278026240017 0  1.865937103925594 0.2604137786483804 0
[...]
<PointData  Vectors="f_37"> 
<DataArray  type="Float64"  Name="f_37"  NumberOfComponents="3" format="ascii">-6.1212058836717329e-07 2.0487985864046123e-08 0.0000000000000000e+00  3.7318417432061601e-07 -2.9616299627332180e-08 0.0000000000000000e+00  -3.3328877582146896e-07 -7.8616125050041036e-09 0.0000000000000000e+00  8.8911200387321655e-07 -1.1548482852783553e-08 0.0000000000000000e+00  -9.9032988575780179e-07 1.3224604957341827e-07 0.0000000000000000e+00  -7.7677973297144057e-07 1.6658545737470143e-07 0.0000000000000000e+00  -1.6615389789525163e-06 3.2654998133557254e-07 0.0000000000000000e+00  1.1878787558147011e-06 2.7545889182241696e-07 0.0000000000000000e+00  2.8665937004519355e-06 -4.9962132489746794e-07 0.0000000000000000e+00  -9.7971014878981173e-07 8.8916972396841982e-08 0.0000000000000000e+00  -1.7418820759784167e-06 1.1253971913161262e-06 0.0000000000000000e+00  7.0689929261542824e-07 2.2272597463727776e-06 0.0000000000000000e+00  -3.7271622561270761e-06 -1.3021180367201927e-06 0.0000000000000000e+00  -3.5566755428393167e-06 -8.6149440473085407e-07 0.0000000000000000e+00  -1.8808620038179301e-06 1.4304302490578808e-07 0.0000000000000000e+00  -1.4424033897240822e-06 6.1122092418355485e-07 0.0000000000000000e+00  -3.9293321955048916e-06 -1.4282501152030176e-07 0.0000000000000000e+00  -3.1032122093182806e-06 -1.1784591701568649e-07 0.0000000000000000e+00  -1.9887354401901199e-06 -1.1512922157065497e-07 0.0000000000000000e+00  -1.5909321402687157e-06 -2.2897370785115722e-07 0.0000000000000000e+00  -1.0575424202624707e-06 -7.6506207486855685e-08 0.0000000000000000e+00  -9.5192837359383791e-07 -3.0175222449232025e-08 0.0000000000000000e+00  -4.7984680356624629e-07 2.1098967803502972e-07 0.0000000000000000e+00  -2.6696341951445787e-07 1.0000342105410351e-07 0.0000000000000000e+00  -8.3029728567366099e-07 1.8650143518025446e-07 0.0000000000000000e+00  1.5000025238374881e+00 2.2621458232304207e-08 0.0000000000000000e+00  -1.1657643001246600e-06 1.4398768068995001e-07 0.0000000000000000e+00  -2.2168789767485983e-06 -8.3064869308854773e-08 0.0000000000000000e+00  -9.8474205710772953e-07 5.0915995671796454e-08 0.0000000000000000e+00  -2.6467341593578116e-06 9.2506887597546231e-08 0.0000000000000000e+00  -1.0641066387077556e-06 -2.5129534397157408e-08 0.0000000000000000e+00  5.4748150306887455e-07 -7.4150140698038665e-08 0.0000000000000000e+00  -1.8811470201730480e-07 -4.0086488831982154e-08 0.0000000000000000e+00  2.6428499768850007e-06 -5.7188244831436285e-08 0.0000000000000000e+00  1.5652409377384692e-07 -7.6628139249838341e-08 0.0000000000000000e+00  3.4317074852989845e-07 4.0570811608220600e-09 0.0000000000000000e+00  -2.9304798874116526e-07 5.1573003051354673e-08 0.0000000000000000e+00  9.9876237223696081e-09 6.8903187494379311e-08 0.0000000000000000e+00  -2.9635182651154448e-06 -3.5797962126100715e-08 0.0000000000000000e+00  1.0340821276031380e+00 2.4548991749747340e-02 0.0000000000000000e+00  1.1153951299246361e+00 -6.5910178030198765e-03 0.0000000000000000e+00  6.0708099781548186e-01 -5.5425984311769372e-03 0.0000000000000000e+00  9.1165813008389607e-01 -2.4990230696031859e-02 0.0000000000000000e+00  1.2057323287879305e+00 -5.8233258737288721e-03 0.0000000000000000e+00  2.2465866846591936e-01 -4.3115906064849406e-02 0.0000000000000000e+00  1.2047944921103282e+00 3.4171224224797494e-03 0.0000000000000000e+00  -1.7485139085000081e-06 1.3483342403925533e-08 0.0000000000000000e+00  -1.4246007399758566e-06 -5.1821567862815358e-08 0.0000000000000000e+00  -5.0132769003392795e-07 -4.8352887681195328e-08 0.0000000000000000e+00  1.2698472223423025e+00 5.4168203029441415e-04 0.0000000000000000e+00  -4.3628765926258548e-07 5.7284433701496839e-08 0.0000000000000000e+00  -1.4880174243328421e-06 -1.4625185972034699e-08 0.0000000000000000e+00  1.3797324042078698e+00 1.8848813285615922e-02 0.0000000000000000e+00  1.2648510292700304e-06 8.5268014361115825e-08 0.0000000000000000e+00  -9.3054428138002285e-08 6.3988443423225487e-10 0.0000000000000000e+00  1.1207965882263351e-06 1.6670104983489292e-07 0.0000000000000000e+00  -5.5828815883765952e-07 -9.8182545949150714e-08 0.0000000000000000e+00  -7.7340131469912022e-07 -6.0507369540540788e-08 0.0000000000000000e+00  -7.3292604386706097e-07 -2.4491072443021472e-08 0.0000000000000000e+00  2.9645993467246895e-07 6.5394727632042724e-08 0.0000000000000000e+00  6.0831368760136963e-07 1.3431455985527956e-07 0.0000000000000000e+00  -2.7362065432597332e-06 1.0971010400930296e-07 0.0000000000000000e+00  1.8191768632825142e-07 -5.9000361973892349e-08 0.0000000000000000e+00  1.3740877878598827e+00 2.4691590914019595e-02 0.0000000000000000e+00  2.3579602173360867e-07 -7.8913397852598692e-08 0.0000000000000000e+00  1.2956090333596466e+00 -2.2906804503865234e-03 0.0000000000000000e+00  1.5896775433801917e+00 -2.8528568150120007e-02 0.0000000000000000e+00  1.4401290816550152e+00 -8.3374949001019665e-04 0.0000000000000000e+00  1.4992932546410551e+00 2.8057232112640327e-03 0.0000000000000000e+00  1.9607352983611659e+00 2.9834029277648444e-02 0.0000000000000000e+00  1.3489870277167635e+00 8.2199792580134861e-03 0.0000000000000000e+00  1.3259403348680356e+00 5.1131092914476694e-04 0.0000000000000000e+00  1.3148531827453069e+00 -2.6460789212721832e-03 0.0000000000000000e+00  1.6609849060502468e+00 -1.0520781591388924e-01 0.0000000000000000e+00  1.5598566717187208e+00 7.8254842176934847e-02 0.0000000000000000e+00  1.8647585501440640e+00 9.7347847924458553e-03 0.0000000000000000e+00  1.1249985999554761e+00 -1.6957771238961003e-07 0.0000000000000000e+00  1.1250027112792542e+00 1.9359907139318407e-08 0.0000000000000000e+00  1.7705570524520520e+00 -1.6404041615572096e-01 0.0000000000000000e+00  1.6447780023784577e+00 1.3702549238549888e-01 0.0000000000000000e+00  7.4027563633543758e-01 1.0677633173634847e-01 0.0000000000000000e+00  1.3706912316475159e+00 -1.1847268621583494e-02 0.0000000000000000e+00  1.4776586794966657e+00 3.4388723489062321e-02 0.0000000000000000e+00  1.1156069360377134e+00 2.3053374514125615e-04 0.0000000000000000e+00  1.3760857298646219e+00 -4.8578801719938707e-03 0.0000000000000000e+00  1.4142359052777411e+00 -6.0545713082945053e-03 0.0000000000000000e+00  1.2485575046198503e+00 -1.9616375152102627e-02 0.0000000000000000e+00  1.5499631225376815e+00 -1.2238755571494483e-01 0.0000000000000000e+00  1.2595542236858739e+00 -2.7842466346255710e-03 0.0000000000000000e+00  1.3021383034572958e+00 5.1902063404099478e-03 0.0000000000000000e+00  1.4040002094336823e+00 7.3008100724816678e-03 0.0000000000000000e+00  1.2377780580892430e+00 5.0466981838487718e-03 0.0000000000000000e+00  1.4078578063081244e+00 -1.6154431098744930e-03 0.0000000000000000e+00  1.3227793789235121e+00 -1.7613144479008123e-03 0.0000000000000000e+00  1.0502942466896206e+00 -7.7896453841726672e-03 0.0000000000000000e+00  1.0940930267976809e+00 -3.1677178688879473e-03 0.0000000000000000e+00  -3.3031963237575451e-01 -1.4964224233390793e-02 0.0000000000000000e+00  1.7794351204739993e+00 1.2350414905472194e-01 0.0000000000000000e+00  4.1342837656161324e-01 1.6725027170600457e-02 0.0000000000000000e+00  1.1858006029521921e+00 2.2260394152784579e-02 0.0000000000000000e+00  1.1818531391031444e+00 2.5545701956682443e-01 0.0000000000000000e+00  1.3866264944391660e+00 3.5554483237093619e-03 0.0000000000000000e+00  9.8214012535859962e-01 -1.5333748249435744e-02 0.0000000000000000e+00  1.3810394540820112e+00 2.1761957111827554e-01 0.0000000000000000e+00  1.0917159149457312e+00 7.8923851500888320e-03 0.0000000000000000e+00  8.3657654555971652e-07 -1.4954263514733813e-08 0.0000000000000000e+00  1.8391929464417849e+00 -6.1059714864216262e-02 0.0000000000000000e+00  1.1435702379344539e+00 -2.5638130464806552e-01 0.0000000000000000e+00  1.6129971931462090e+00 -5.5845739976148154e-02 0.0000000000000000e+00  -9.3014102511202503e-07 -2.1044577858900423e-08 0.0000000000000000e+00  9.5425717342765071e-01 2.4096592464511500e-03 0.0000000000000000e+00  -2.2888523422603016e-06 -2.1097918818729780e-07 0.0000000000000000e+00  -6.9184216007371407e-06 2.7202729200221881e-07 0.0000000000000000e+00  1.1396016791313586e+00 -1.0909040007221269e-02 0.0000000000000000e+00  9.8686453556333072e-07 -3.0179680258900835e-08 0.0000000000000000e+00  1.8259061541011572e+00 7.8307502029755102e-02 0.0000000000000000e+00  1.0211157079633135e+00 -2.1308724902288508e-03 0.0000000000000000e+00  1.7923857431739372e+00 -1.1342074320558139e-01 0.0000000000000000e+00  -2.7226307441600851e-06 -9.1599019197404841e-08 0.0000000000000000e+00  1.7979048926223831e+00 -1.4132274364287406e-01 0.0000000000000000e+00  2.0417421335732470e-07 1.2715696127143221e-07 0.0000000000000000e+00  1.0587683879989978e+00 3.4646166643754824e-03 0.0000000000000000e+00  1.6013947302503266e+00 1.2919340982143346e-01 0.0000000000000000e+00  -2.1363727253472645e-06 -1.5927884494606954e-08 0.0000000000000000e+00  1.7221015424218902e+00 7.4791930341057092e-02 0.0000000000000000e+00  1.3596495867645395e+00 -3.0230343339603893e-01 0.0000000000000000e+00  1.3399822377145700e+00 -1.2283378849636592e-01 0.0000000000000000e+00  1.3729741857065387e+00 1.2466780821626149e-01 0.0000000000000000e+00  -1.4675889559743572e-07 1.3951914936502229e-08 0.0000000000000000e+00  1.3106746653209260e+00 2.1270934890333451e-02 0.0000000000000000e+00  1.0571137968665167e+00 -4.5168026619033094e-03 0.0000000000000000e+00  1.0712880572808533e-06 -1.8434713950426262e-07 0.0000000000000000e+00  1.1885243208937784e+00 -1.2127397117509233e-02 0.0000000000000000e+00  8.5374500739135517e-01 -5.4184554818960604e-03 0.0000000000000000e+00  1.1078127244324079e+00 -8.8143129606916128e-04 0.0000000000000000e+00  1.1252264806936645e+00 5.6391013565081685e-05 0.0000000000000000e+00  1.0412653648665449e+00 2.0761152291088326e-04 0.0000000000000000e+00  1.9202785526006043e+00 1.8455764061859734e-01 0.0000000000000000e+00  1.4538760194450184e+00 7.5959920547482226e-03 0.0000000000000000e+00  2.1016503427470646e-06 2.2368089186898055e-08 0.0000000000000000e+00  6.8107758812063247e-07 -1.6331036792927560e-08 0.0000000000000000e+00  -7.9960234315882764e-07 -5.6292066630767794e-08 0.0000000000000000e+00  6.5625203823657319e-01 1.7152070788496574e-08 0.0000000000000000e+00  2.4334213199670103e-07 6.2966566029644166e-08 0.0000000000000000e+00  1.0016571607734264e+00 7.8095217063006688e-03 0.0000000000000000e+00  1.6257097488728838e+00 1.2198165176564560e-01 0.0000000000000000e+00  1.3566602561554226e+00 1.5935640267855475e-02 0.0000000000000000e+00  -2.8955890393072345e-07 4.8352377588038938e-08 0.0000000000000000e+00  -2.9275402195032911e-06 1.2969486597958043e-07 0.0000000000000000e+00  -8.0353455521695913e-07 2.7436490446355091e-08 0.0000000000000000e+00  -1.4760830738969241e-06 8.3117561375068938e-09 0.0000000000000000e+00  -1.0558705349674374e-06 -4.4730568968393227e-08 0.0000000000000000e+00  -2.8866332323616838e-07 4.7992207437064561e-08 0.0000000000000000e+00  -2.6099527122955425e-06 -1.2655648056866391e-07 0.0000000000000000e+00  -1.0365503423467211e-06 -7.1254157694769720e-08 0.0000000000000000e+00  1.9441652717970282e-07 -3.1590263773478282e-09 0.0000000000000000e+00  3.6875551885410691e-07 1.6818972472104644e-08 0.0000000000000000e+00  1.1779417219846210e-06 -8.5667695520581051e-08 0.0000000000000000e+00  -8.2464087293268030e-07 1.4457825078281596e-07 0.0000000000000000e+00  -4.6848276195047460e-07 9.8472921633903618e-08 0.0000000000000000e+00  -2.0673023507091088e-06 2.2554370226476490e-08 0.0000000000000000e+00  -2.6559192966872672e-06 -1.8195137379029271e-07 0.0000000000000000e+00  -2.4450745832059081e-06 -5.9561803773803377e-08 0.0000000000000000e+00  -1.1682894603618379e-06 3.3352270424815604e-09 0.0000000000000000e+00  -2.1568315280710011e-06 3.2640698314563013e-08 0.0000000000000000e+00  7.2409380571302107e-01 -4.3385269199289804e-02 0.0000000000000000e+00  8.6486554483833977e-01 7.1243174276830789e-03 0.0000000000000000e+00  8.7082090781429511e-01 -1.3647935116002849e-03 0.0000000000000000e+00  9.3613049506223789e-01 6.4887761454782474e-03 0.0000000000000000e+00  1.6559176024665052e+00 -6.9695469231890836e-02 0.0000000000000000e+00  5.6108514913089788e-03 -1.0408756563237675e-02 0.0000000000000000e+00  3.9239908791168919e-02 -3.0588301513948798e-02 0.0000000000000000e+00  1.2058843416859646e+00 4.3862141283638120e-02 0.0000000000000000e+00  9.7766847470945850e-01 7.7421259147194871e-04 0.0000000000000000e+00  1.1260090221160701e+00 -2.8445503251276753e-02 0.0000000000000000e+00  1.2283561930550633e+00 -2.2482131616579502e-02 0.0000000000000000e+00  8.2039626584218561e-01 3.0697010462613036e-03 0.0000000000000000e+00  1.1940651918778891e+00 -2.2983769240611140e-02 0.0000000000000000e+00  1.1807276967553380e+00 -1.7423289040253646e-02 0.0000000000000000e+00  1.2745026567843860e+00 3.6766045291293870e-03 0.0000000000000000e+00  1.2036791054750453e+00 2.4763839322582644e-02 0.0000000000000000e+00  8.6541904660842206e-01 -1.4451257974700106e-03 0.0000000000000000e+00  9.2384389142351053e-01 -1.8483724490869056e-04 0.0000000000000000e+00  8.8101023157823022e-01 -2.0506766383091294e-02 0.0000000000000000e+00  8.1271251083131724e-01 8.3502237880704929e-03 0.0000000000000000e+00  2.3168526904774672e-01 5.1304797534690569e-02 0.0000000000000000e+00  1.2276310104371473e+00 -7.0999000801858642e-02 0.0000000000000000e+00  9.4843039284148711e-01 -6.6471016829282636e-02 0.0000000000000000e+00  1.0989161739147824e+00 -1.1414272665637233e-01 0.0000000000000000e+00  1.5556620473662621e+00 -1.6710873013164410e-01 0.0000000000000000e+00  1.2628831472177282e+00 1.4757893398619599e-03 0.0000000000000000e+00  1.5337530107948776e+00 -2.6252175586520415e-02 0.0000000000000000e+00  1.4842410549640430e+00 3.2117776180728655e-02 0.0000000000000000e+00  1.2567843806823835e+00 -1.8697418525072222e-02 0.0000000000000000e+00  1.4298963703113747e+00 -1.0758956339155920e-01 0.0000000000000000e+00  1.4823237816211194e+00 -1.0180766523627943e-01 0.0000000000000000e+00  9.8281405544081324e-01 -9.9459676520782143e-03 0.0000000000000000e+00  8.0046027990514773e-02 -5.4840702580747636e-02 0.0000000000000000e+00  2.8521580125849583e-01 2.3921355012605304e-02 0.0000000000000000e+00  1.4114647023635889e+00 -1.2109713684450605e-02 0.0000000000000000e+00  9.4759321002250285e-01 1.4015534759087658e-03 0.0000000000000000e+00  1.1781506610432231e+00 1.3962642837306050e-02 0.0000000000000000e+00  1.4275259035171202e+00 -2.9665305899084438e-02 0.0000000000000000e+00  7.8822203468474605e-01 1.8510603414072107e-02 0.0000000000000000e+00  9.0194922609689354e-01 1.2100582432100317e-03 0.0000000000000000e+00  1.3485604959334112e+00 1.1512469835934722e-03 0.0000000000000000e+00  1.0350383248293160e+00 6.1814568923515736e-02 0.0000000000000000e+00  8.7554498672876657e-01 7.5740602389482196e-04 0.0000000000000000e+00  6.5624905572701475e-01 8.7076253834157460e-08 0.0000000000000000e+00  1.0832245383535462e+00 5.2728644187848644e-02 0.0000000000000000e+00  1.5678992639076776e+00 3.7305354508517366e-02 0.0000000000000000e+00  1.5827988916924607e+00 -4.1523553696779694e-02 0.0000000000000000e+00  1.0352739214013027e+00 1.2017761619342142e-01 0.0000000000000000e+00  1.0716433916974450e+00 7.0491796043222310e-02 0.0000000000000000e+00  7.4347279991858717e-01 4.3405706331106257e-03 0.0000000000000000e+00  8.0573309156584327e-01 8.7955314537677576e-02 0.0000000000000000e+00  1.4821953597755129e+00 2.7090985400428755e-03 0.0000000000000000e+00  1.6516124416130065e+00 1.6910500949964383e-01 0.0000000000000000e+00  1.3478546113602403e+00 -5.0753307789858960e-04 0.0000000000000000e+00  1.4925312649433806e+00 2.4023044943002230e-04 0.0000000000000000e+00  1.6077933885022344e+00 -1.7195611481106494e-02 0.0000000000000000e+00  1.4990908504084071e+00 -1.3691854344411500e-01 0.0000000000000000e+00  1.1353641545002997e+00 1.8925395926562987e-02 0.0000000000000000e+00  1.3473058085570058e+00 1.2929597731462341e-03 0.0000000000000000e+00  1.3192281281657428e+00 8.9926997486087616e-03 0.0000000000000000e+00  7.8804249192726850e-01 4.6555478783976119e-03 0.0000000000000000e+00  1.5913127072446391e+00 6.6060628702508256e-02 0.0000000000000000e+00  9.4149723475832325e-01 9.3608049818143857e-02 0.0000000000000000e+00  1.3584953977706768e+00 1.0750780367677459e-02 0.0000000000000000e+00  1.2233589252737520e+00 1.6055214798552631e-01 0.0000000000000000e+00  8.8038881483850573e-01 -5.3479068402836763e-03 0.0000000000000000e+00  1.1991592522029793e+00 6.3038046061955762e-04 0.0000000000000000e+00  1.3609425998523381e+00 9.6645537462789394e-02 0.0000000000000000e+00  1.4960987279561735e+00 8.4215547678904122e-03 0.0000000000000000e+00  1.3341448302427645e+00 6.1606982815839758e-03 0.0000000000000000e+00  1.4577251449033051e+00 -5.3249209105148340e-03 0.0000000000000000e+00  1.3497283849391277e+00 -1.0642176858402181e-02 0.0000000000000000e+00  1.4797055191066077e+00 1.3079028563073615e-02 0.0000000000000000e+00  6.6217064643771162e-01 -1.6975750747466522e-03 0.0000000000000000e+00  6.3159859629366655e-01 -2.6791414773462154e-03 0.0000000000000000e+00  7.3818071398577445e-01 7.9368213744141752e-03 0.0000000000000000e+00  8.3082069143895532e-01 1.3650004298904925e-03 0.0000000000000000e+00  1.3181130482288836e+00 3.6780221248663781e-03 0.0000000000000000e+00  7.2331671728874714e-01 -9.4210812748993320e-04 0.0000000000000000e+00  1.3244342760848751e+00 9.4454634426302669e-03 0.0000000000000000e+00  1.4193911068070075e+00 -4.8097156282589986e-03 0.0000000000000000e+00  7.9340781601610988e-01 9.1500266018739278e-03 0.0000000000000000e+00  8.2257738218494947e-01 4.1550282389195989e-02 0.0000000000000000e+00  1.3248745217526148e+00 2.1897716418379895e-03 0.0000000000000000e+00  1.3888250958332415e+00 5.8648687316096380e-03 0.0000000000000000e+00  5.4806116138570971e-01 -8.0065330496914664e-04 0.0000000000000000e+00  1.3643576674061335e+00 -1.8628009785549474e-02 0.0000000000000000e+00  7.6240196195438104e-01 -8.8090250249956911e-03 0.0000000000000000e+00  7.8781922894597112e-01 -2.1446924371914841e-03 0.0000000000000000e+00  7.3881285328754065e-01 -7.9182931978522150e-02 0.0000000000000000e+00  1.1963188883982381e+00 -5.2066927456290664e-02 0.0000000000000000e+00  6.5380009584692911e-01 2.5491636416810010e-03 0.0000000000000000e+00  1.5188526300488032e+00 2.1719631483914374e-02 0.0000000000000000e+00  1.5283699497432155e+00 4.7607445200192150e-01 0.0000000000000000e+00  1.0046001721400206e+00 1.8217274526713936e-01 0.0000000000000000e+00  7.5296047071956373e-01 9.1270439119177924e-04 0.0000000000000000e+00  1.3189796514655336e+00 -1.2563244291873665e-01 0.0000000000000000e+00  1.4489263887875994e+00 -5.4611078497690591e-01 0.0000000000000000e+00  6.8522872097805798e-01 1.5514002714701331e-03 0.0000000000000000e+00  7.7395232413999859e-01 2.1408821102888225e-03 0.0000000000000000e+00  1.4975763614627926e+00 -1.4714096178951206e-02 0.0000000000000000e+00  3.8051024002691175e-01 7.5494435766126008e-02 0.0000000000000000e+00  1.4062539966171947e+00 1.2913590216483723e-07 0.0000000000000000e+00  1.3327423593438970e+00 -2.7561090785716488e-03 0.0000000000000000e+00  7.4136987103469187e-01 -1.2786845956795187e-04 0.0000000000000000e+00  1.4062505954593234e+00 4.2673021298597005e-08 0.0000000000000000e+00  7.4268474795272799e-01 7.7794437859440813e-04 0.0000000000000000e+00  1.8372857339696862e+00 -3.2980723522449290e-01 0.0000000000000000e+00  1.4806762084794289e+00 -1.1134266322507195e-02 0.0000000000000000e+00  7.1441666584034558e-01 9.8560363625482483e-02 0.0000000000000000e+00  1.2899512400951538e+00 -1.5835534159568451e-02 0.0000000000000000e+00  6.8513903805027621e-01 -3.4950981441463453e-03 0.0000000000000000e+00  5.1937846634239171e-01 -4.3367649888775761e-03 0.0000000000000000e+00  1.3994028526759830e+00 2.3953098079638412e-03 0.0000000000000000e+00  4.9170238420934886e-01 -4.8694762827455329e-03 0.0000000000000000e+00  6.5914744774047818e-01 -1.3755091742141338e-03 0.0000000000000000e+00  1.3073356419284972e+00 -4.42