<?xml version="1.0"?>
<VTKFile type="UnstructuredGrid"  version="0.1"  >
<UnstructuredGrid>
<Piece  NumberOfPoints="2426" NumberOfCells="4534">
<Points>
<DataArray  type="Float64"  NumberOfComponents="3"  format="ascii">0 0.41 0  0 0 0  2.2 0 0  2.2 0.41 0  0.2404508497187474 0.2293892626146237 0  0.25 0.2 0  0.2404508497187474 0.1706107373853764 0  0.2154508497187474 0.1524471741852423 0  0.1845491502812526 0.1524471741852423 0  0.1595491502812526 0.1706107373853764 0  0.15 0.2 0  0.1595491502812526 0.2293892626146237 0  0.1845491502812527 0.2475528258147577 0  0.2154508497187474 0.2475528258147577 0  0.5404508497187474 0.2293892626146237 0  0.55 0.2 0  0.5404508497187474 0.1706107373853764 0  0.5154508497187473 0.1524471741852423 0  0.4845491502812526 0.1524471741852423 0  0.4595491502812526 0.1706107373853764 0  0.45 0.2 0  0.4595491502812526 0.2293892626146237 0  0.4845491502812526 0.2475528258147577 0  0.5154508497187473 0.2475528258147577 0  1.1 0 0  0 0.205 0  1.1 0.41 0  0.55 0 0  0.55 0.41 0  0.275 0 0  0.275 0.41 0  1.65 0.41 0  1.65 0 0  1.375 0 0  1.375 0.41 0  1.925 0 0  1.925 0.41 0  0.8250000000000001 0.41 0  0.8250000000000001 0 0  1.5125 0.205 0  1.7875 0.205 0  0.9625000000000001 0.205 0  1.2375 0.205 0  2.2 0.205 0  0.7560964076246335 0.2151713709677419 0  1.99375 0.2152743902439024 0  2.0625 0 0  0.6875 0 0  2.0625 0.41 0  2.2 0.3075 0  0.6875 0.41 0  1.7875 0.41 0  1.375 0.1486128048780488 0  1.5125 0 0  1.7875 0 0  1.5125 0.41 0  0.9625000000000001 0 0  0.9625000000000001 0.41 0  0.4125 0 0  0.1375 0 0  0.1375 0.41 0  0.4125 0.41 0  1.2375 0 0  1.1 0.1486128048780487 0  1.2375 0.41 0  1.65 0.1486128048780487 0  1.126715909090909 0.2793064024390244 0  1.676715909090909 0.2793064024390244 0  1.348284090909091 0.2793064024390244 0  0.34375 0.3032389320646208 0  1.894702181800738 0.1282910975492754 0  2.092797818199262 0.1282910975492754 0  1.85625 0.3075 0  0.8630851210521902 0.286932093388664 0  0.89375 0.1025 0  0.35 0.1090282786671641 0  0 0.3075 0  0 0.1025 0  0.6526217841291382 0.288229645480046 0  0.7562500000000001 0.09660248895515888 0  0.6568633732316684 0.1557582854763441 0  2.099172119769978 0.25625 0  1.002356446954348 0.1010393851523063 0  1.99375 0.08395950269330846 0  1.459960956013612 0.3075 0  1.569025960719943 0.2986889805672169 0  1.03125 0.3278689922742084 0  0.75625 0.3247156761655783 0  1.959375 0.3126371951219512 0  1.749222215368287 0.1025 0  1.275777784631713 0.1025 0  2.2 0.1025 0  1.225938124459196 0.3075 0  1.550777784631713 0.1025 0  1.44375 0.07430640243902442 0  1.16875 0.07430640243902437 0  0.3528655045338512 0.2063263890916129 0  0.5890337614812103 0.08775733857679162 0  0.8504912436891263 0.190072835691683 0  1.899250267340833 0.2229966846119207 0  0.1020898364287272 0.3140258291809757 0  1.766482954545455 0.2934032012195123 0  1.051658316544432 0.2265720188842194 0  0.2 0.3400647632937836 0  1.421109702350723 0.2261157654379721 0  0.4812500000000001 0.41 0  0.4324401666997539 0.3216425986889796 0  0.098916018031319 0.09171660955420841 0  0.9508742791313441 0.2921736960864468 0  2.13125 0 0  2.118919042110979 0.3422084711244843 0  1.30625 0.41 0  0.20625 0 0  1.597888256393107 0.2173787389261347 0  0.4812500000000001 0 0  0.4324082967851086 0.08384041677422771 0  1.829299675393195 0.07400700849299596 0  0.568219932524165 0.3212274660843853 0  1.71875 0.41 0  0.268005226542646 0.08512186835670006 0  1.16875 0.41 0  2.038220665644273 0.332420740103091 0  0.6678017527842831 0.07701763866051195 0  0.89375 0.41 0  0.5111435174287687 0.07335351331957608 0  0.176193934632343 0.0734896648625108 0  0.07390688010811153 0.1697064032433452 0  0.05452951551825875 0.25625 0  0.61875 0.41 0  1.452769549894695 0.1548122580621249 0  1.369219062229598 0.07430640243902442 0  1.30625 0 0  1.720943423819132 0.1714577452753128 0  1.157188124459196 0.205 0  1.094219062229598 0.07430640243902437 0  1.304056576180868 0.1714577452753128 0  1.67579304192913 0.07430640243902437 0  0.2672907219039591 0.3037570723459566 0  1.209670467133757 0.1362100266964769 0  1.58125 0 0  1.03125 0 0  0.06875000000000001 0.41 0  0 0.35875 0  1.58125 0.41 0  1.631724228912893 0.3381867502687533 0  0.8240147050827157 0.1225233169495944 0  1.825608881788174 0.14499488549201 0  1.85625 0 0  1.44375 0 0  1.44375 0.41 0  1.85625 0.41 0  2.13125 0.41 0  0.7562500000000001 0.41 0  0.7562500000000001 0 0  0.89375 0 0  0.34375 0 0  0.34375 0.41 0  0.20625 0.41 0  0.06875000000000001 0 0  1.16875 0 0  1.03125 0.41 0  0.61875 0 0  1.71875 0 0  1.99375 0 0  1.99375 0.41 0  0.3972301426712326 0.2593842555611471 0  1.340625 0.3489494290853124 0  1.134375 0.3489494290853123 0  1.700180620188976 0.3438659752031281 0  0.5003922072260507 0.341765274319271 0  0.6212513815748759 0.2209216137134851 0  0.6885607720119526 0.215393731583638 0  1.033412357328477 0.1612902025713047 0  2.135782184673599 0.07126652247502523 0  1.668441847249787 0.2129203728327609 0  1.295782514339747 0.2378437748815763 0  1.409375 0.3520314716057996 0  2.129248544730567 0.1906135162504124 0  2.060771381434487 0.1989445750470348 0  2.013252586573865 0.1496169464686054 0  1.942766402200229 0.1734448904596831 0  1.895522487186454 0.06076163953489683 0  2.069553871656643 0.06605731020975725 0  0.9281250000000001 0.3539050257418612 0  1.274680914880868 0.3520219391081363 0  0.3030138498135347 0.2488370856812789 0  0.8223773249563684 0.341761430177996 0  0.9018164060227267 0.2326477848736739 0  0.8143027982392851 0.2440265179987191 0  0.7225087161029304 0.2699907246386231 0  1.614713220494657 0.09473434380863296 0  0.378125 0.3566194660323104 0  0.309375 0.3566194660323104 0  1.72990325744076 0.2380068107952482 0  0.6915936999299305 0.3429472631234433 0  0.6268087624932918 0.3466455500035671 0  1.356580098625191 0.2120393231351682 0  0.3060160055995138 0.1590148921620778 0  0.3954648733249218 0.156380553890791 0  2.034370752044885 0.2668681600792073 0  1.51768709249349 0.3426260931494756 0  1.561883724969884 0.1650446847858835 0  1.197344062229598 0.2523725417393646 0  0.9281250000000001 0.05124999999999999 0  1.804085235518364 0.3468178408964637 0  1.817887819205233 0.2589243285818559 0  0.9107805776841645 0.1653834539923287 0  1.905897727272727 0.3485060975609756 0  0 0.05125 0  0.844212276491354 0.0614201194265309 0  0.378125 0.05244637078450034 0  1.008571329007178 0.2705955969954818 0  0.7724048032149464 0.1559079561351474 0  0.7203054377831548 0.04941826955193545 0  1.192836486056382 0.3562350748565544 0  0.5967108020713719 0.1479294686523888 0  1.28257088594801 0.2944411014911587 0  0.7041890234548132 0.1222025174424443 0  1.474860187679412 0.2504218616229368 0  1.406767003493824 0.2829282258560709 0  0.3201325899091991 0.05890121548989159 0  0.5979220912872258 0.2727591995766724 0  1.845656689180403 0.1998310418452388 0  2.144958525570388 0.2909790873294231 0  2.2 0.15375 0  1.57794966442982 0.3540357145964566 0  0.9483181579620558 0.1214693369582054 0  0.0496154796471391 0.333125 0  1.508991196088596 0.1421783375065625 0  0.09776612425612034 0.2204896805326566 0  1.50436820029908 0.06143401634903343 0  1.223857000523521 0.0823554862453532 0  0.2531953886959507 0.3582003209055908 0  1.153316824384777 0.1289850171317837 0  2.148922302309752 0.1258841779285271 0  1.621993280276081 0.2841214267927899 0  1.550118654119087 0.2461998729100966 0  1.327182649291491 0.1216967252533594 0  1.753125 0.04556020050186112 0  1.271875 0.04556020050186116 0  0.9824282234771738 0.05051969257615314 0  1.039510847866381 0.05683351822678641 0  1.94956388244759 0.1180512551534177 0  1.949997712993411 0.04965831614304109 0  1.771961817615021 0.1530278789497521 0  1.909246823951428 0.2812757146784527 0  1.101974016627944 0.2038045618205013 0  0.7906250000000001 0.0444674049654372 0  1.948575539857022 0.2445328248721197 0  1.697271520964565 0.1233917627620729 0  1.065625 0.3689344961371042 0  1.085849084308977 0.3170853572226867 0  0.9840604787624379 0.3582077516409966 0  1.577403511714593 0.05463601888079143 0  0.05622663515370135 0.05493816910862376 0  0.8762396958822678 0.3392249777398821 0  1.751571320346033 0.3651102912045228 0  1.055327852410105 0.111864799513911 0  0.1583785085108421 0.2994699345738728 0  0.1455283439499995 0.3542795598723423 0  2.2 0.35875 0  0.225705107073232 0.05084786997482401 0  0.1455852234589313 0.1166494778469164 0  1.466879772203159 0.3611261772912453 0  1.990280163552011 0.3564754268533217 0  1.17471064520912 0.2990917256188288 0  0.7221925551074015 0.1739659241003985 0  0 0.25625 0  2.2 0.25625 0  2.2 0.05125 0  0 0.15375 0  1.853978576207987 0.35875 0  0.21965520498276 0.1015543880164422 0  1.515638456102889 0.2882700110184686 0  0.09048297387599738 0.3637717362208066 0  2.150453692751374 0.2387066338105111 0  1.323782677156475 0.04897634338873398 0  1.409375 0.03715320121951221 0  1.406484531114799 0.1087852750766809 0  1.134375 0.03715320121951218 0  1.627401732573545 0.04552157221025036 0  0.446875 0.3713289093361426 0  2.045405893604797 0.1105340662939892 0  1.255408269734577 0.1577307500159216 0  2.028125 0.03707597992059326 0  0.04420832937638274 0.128125 0  0.5817551710628505 0.3702615006034757 0  0.1197849154434487 0.2663398672460083 0  1.248258025468107 0.2565907092181813 0  0.1300647302703173 0.0508462728378621 0  0.7738123537510222 0.2761231499240648 0  1.203125 0.0366132337404304 0  0.5444207041612499 0.111205399508622 0  0.8016457771828226 0.1964238426015905 0  2.072662025974815 0.2975086504196739 0  0.4019040438866802 0.2103993403217561 0  0.4677372330974851 0.04827477407630658 0  0.8677218578847617 0.1432970430140788 0  1.058011122005847 0.2758866204059919 0  0.4429405887974043 0.2746184809910084 0  0.5843750000000001 0.03726989681835222 0  0.6318596133730142 0.1128692182767254 0  0.4862628454464408 0.2957029785303028 0  0.7805186758662764 0.3673578380827891 0  1.887722846421017 0.1760882698830035 0  0.3498893058880703 0.256189258793856 0  1.472640588990488 0.1118278026240017 0  1.865937103925594 0.2604137786483804 0
[...]
<PointData  Vectors="f_37"> 
<DataArray  type="Float64"  Name="f_37"  NumberOfComponents="3" format="ascii">-5.8444564095711741e-07 2.0353404446249998e-08 0.0000000000000000e+00  3.3787842535407730e-07 -3.2164116301183734e-08 0.0000000000000000e+00  -2.7168253343985101e-07 -1.6706964854289304e-09 0.0000000000000000e+00  1.5230606845910740e-06 -3.9716521395122381e-09 0.0000000000000000e+00  -1.7022169442802824e-06 -1.1243797391389743e-06 0.0000000000000000e+00  -1.4545931590919665e-06 -2.5428362277893439e-06 0.0000000000000000e+00  -2.0438579880256588e-06 -1.1634359030888856e-06 0.0000000000000000e+00  1.0179209398723057e-06 9.4435530974953628e-07 0.0000000000000000e+00  5.0623055970891651e-06 1.9307437780790555e-06 0.0000000000000000e+00  4.3019940112156487e-07 -5.9564530690392019e-07 0.0000000000000000e+00  -1.2606866539871960e-06 -4.4521187587370811e-07 0.0000000000000000e+00  3.7927042373139250e-07 2.2313642158681781e-06 0.0000000000000000e+00  -3.7844782581300082e-06 -1.3877358260593080e-06 0.0000000000000000e+00  -3.8940977611498464e-06 -1.3392350728138470e-06 0.0000000000000000e+00  -1.8341752885263203e-06 -2.0622069970757948e-06 0.0000000000000000e+00  -1.0493613281766987e-06 -1.3972971444821032e-06 0.0000000000000000e+00  -1.4698701222303395e-06 -8.7142259103297217e-07 0.0000000000000000e+00  -5.3568721053991925e-06 1.7606455879293604e-07 0.0000000000000000e+00  -6.1238665286066226e-07 4.2956269617808770e-06 0.0000000000000000e+00  1.8397903307004710e-05 -4.4816549122511136e-06 0.0000000000000000e+00  5.4505576328093523e-06 3.6760875928935047e-07 0.0000000000000000e+00  1.5516426173376765e-06 7.6319483504507884e-07 0.0000000000000000e+00  6.9406239661630310e-06 1.2744787880555467e-07 0.0000000000000000e+00  3.6057565848438882e-06 -1.6749668720875522e-06 0.0000000000000000e+00  -3.2877996509236656e-06 3.0321889848861631e-07 0.0000000000000000e+00  1.5000026220972686e+00 -3.6120613117748849e-07 0.0000000000000000e+00  -4.7167352397640387e-06 -3.6610195374566472e-07 0.0000000000000000e+00  -1.4192023468989185e-06 3.2756194996409584e-08 0.0000000000000000e+00  -1.3737688762695899e-06 -1.0096738545016553e-07 0.0000000000000000e+00  -3.3673669840094840e-06 1.2856991788695314e-09 0.0000000000000000e+00  -1.3053632741049116e-06 6.0699428525439469e-08 0.0000000000000000e+00  4.4970671823426065e-07 3.6855218777566721e-09 0.0000000000000000e+00  1.6926589967708275e-07 -2.4487104148043360e-09 0.0000000000000000e+00  3.1894436196086070e-06 2.2162955859710546e-09 0.0000000000000000e+00  2.1157892917922023e-06 3.6404093938941593e-09 0.0000000000000000e+00  6.7797309432208780e-07 3.3408454240110314e-09 0.0000000000000000e+00  -8.3042633417194234e-07 -2.1538619136743448e-09 0.0000000000000000e+00  -1.5245298246768985e-06 -3.3685186010850262e-07 0.0000000000000000e+00  -4.2306759071887494e-06 4.5137684705670129e-07 0.0000000000000000e+00  1.1658276803415495e+00 -4.3976271462298368e-04 0.0000000000000000e+00  1.1659374404199057e+00 6.0567530293453937e-06 0.0000000000000000e+00  7.0956280664801397e-01 -5.0303470954655261e-02 0.0000000000000000e+00  1.1312570324650182e+00 -6.4943514376240418e-03 0.0000000000000000e+00  1.1657852217863280e+00 -3.7023310771587149e-05 0.0000000000000000e+00  2.0547453758548162e-01 -2.0735976142850672e-02 0.0000000000000000e+00  1.1658693525853603e+00 -3.8569438511653736e-05 0.0000000000000000e+00  -2.6582605687057577e-06 4.0666268725630580e-09 0.0000000000000000e+00  2.1867203955741767e-06 -3.8641492067692135e-07 0.0000000000000000e+00  -1.1309596828267701e-06 2.2319398287933018e-09 0.0000000000000000e+00  1.1586050599567275e+00 5.4774449151637928e-05 0.0000000000000000e+00  2.7075728104213463e-06 4.1566406555159106e-07 0.0000000000000000e+00  -7.2239276612553566e-07 -1.9284140854715003e-09 0.0000000000000000e+00  1.1637185869197690e+00 -6.2602491913037921e-04 0.0000000000000000e+00  3.3097011094048686e-06 -1.6465915527423480e-09 0.0000000000000000e+00  -3.7458978550886551e-07 -1.5957873455433077e-09 0.0000000000000000e+00  7.1497968067866812e-07 -5.5192887099958067e-11 0.0000000000000000e+00  2.7676177251462447e-07 -4.5669354551665785e-07 0.0000000000000000e+00  3.7439640220929223e-06 4.5332444402146351e-07 0.0000000000000000e+00  -7.2987462381370765e-07 -1.1628416142859283e-07 0.0000000000000000e+00  4.8232337372496999e-07 4.7037470465237410e-08 0.0000000000000000e+00  5.1074522373106765e-07 1.5023256857581823e-07 0.0000000000000000e+00  -2.2495036850732149e-06 1.1599647823641543e-07 0.0000000000000000e+00  -2.6736808834003676e-08 3.7526428947009330e-08 0.0000000000000000e+00  1.2226495709623175e+00 2.0280549265753157e-02 0.0000000000000000e+00  -1.5528439490446139e-06 -3.6632914889238032e-08 0.0000000000000000e+00  1.1657734793295573e+00 -2.8449236534867604e-06 0.0000000000000000e+00  1.2682553359740780e+00 -1.7839646083032398e-04 0.0000000000000000e+00  1.1653908172467482e+00 1.6181042411755992e-05 0.0000000000000000e+00  1.1693450058200263e+00 -3.3549461019561117e-03 0.0000000000000000e+00  1.9848925454896549e+00 3.8623842941671073e-02 0.0000000000000000e+00  1.1650385402700436e+00 -8.6737373097634635e-05 0.0000000000000000e+00  1.1650584482236472e+00 -7.0466355569283787e-05 0.0000000000000000e+00  1.1585044705471128e+00 1.6929445652032963e-04 0.0000000000000000e+00  1.6522519733856498e+00 -9.6491664113942763e-02 0.0000000000000000e+00  1.4878914659424229e+00 6.4485691598572814e-02 0.0000000000000000e+00  1.8465987158232853e+00 -2.5763092289231695e-02 0.0000000000000000e+00  1.1249986059360668e+00 -3.6134502075573050e-07 0.0000000000000000e+00  1.1250029519618694e+00 -1.5103269266703518e-07 0.0000000000000000e+00  1.7719829836059038e+00 -1.7720144007333807e-01 0.0000000000000000e+00  1.6141247084390502e+00 8.5090714890316763e-02 0.0000000000000000e+00  8.5448124951538806e-01 1.2511403784664599e-01 0.0000000000000000e+00  1.1658577454865580e+00 -5.2893000451844708e-05 0.0000000000000000e+00  1.3492704024988085e+00 4.5117049658783721e-03 0.0000000000000000e+00  1.1379008661766021e+00 6.5672741464584776e-06 0.0000000000000000e+00  1.1596054256772146e+00 -4.2905772361985891e-04 0.0000000000000000e+00  1.1624494975430915e+00 -6.7252346766753495e-05 0.0000000000000000e+00  1.2006533124975627e+00 3.3537885839931364e-02 0.0000000000000000e+00  1.5296029939069378e+00 -8.0393121895967798e-02 0.0000000000000000e+00  1.1554325630128348e+00 -2.7771884647281264e-06 0.0000000000000000e+00  1.1583178114951702e+00 -1.7041066502428205e-04 0.0000000000000000e+00  1.1606880861800120e+00 -2.9278436963208147e-03 0.0000000000000000e+00  1.1583242583005608e+00 -1.9595537149261655e-04 0.0000000000000000e+00  1.1859510559567048e+00 9.9545740536385336e-03 0.0000000000000000e+00  1.1585062797244696e+00 1.0543541082086324e-05 0.0000000000000000e+00  1.1130814484789777e+00 2.4001019706050588e-04 0.0000000000000000e+00  1.1059777512500018e+00 -3.3278677706164314e-02 0.0000000000000000e+00  -5.0287414735413061e-01 -8.5025971562517122e-02 0.0000000000000000e+00  1.7753455192691026e+00 1.5626086290748487e-01 0.0000000000000000e+00  3.2227687931718546e-01 6.6941272304502378e-02 0.0000000000000000e+00  1.1658778335707656e+00 1.3840339239935584e-05 0.0000000000000000e+00  1.1829114723410177e+00 2.5799798849511124e-01 0.0000000000000000e+00  1.1638071459426793e+00 1.3928675728655545e-04 0.0000000000000000e+00  1.1083042574396405e+00 -6.2931853788158618e-02 0.0000000000000000e+00  1.3866979813211544e+00 2.2349167913914439e-01 0.0000000000000000e+00  1.1658250290735512e+00 -1.6517216579808400e-03 0.0000000000000000e+00  1.1248265401268956e-06 -1.6507888954106362e-07 0.0000000000000000e+00  1.8617194619288093e+00 -7.7410161314307696e-02 0.0000000000000000e+00  1.1425211201328043e+00 -2.5581000410989463e-01 0.0000000000000000e+00  1.5067465800945021e+00 -8.0590620516222095e-02 0.0000000000000000e+00  -1.2091993423367724e-06 -1.5326033796451429e-10 0.0000000000000000e+00  1.0876436511887111e+00 9.3506548497835742e-05 0.0000000000000000e+00  -2.3101771453356774e-06 2.4424026107398804e-08 0.0000000000000000e+00  -6.7752257623763859e-06 2.5747564036496936e-07 0.0000000000000000e+00  1.1659284536747565e+00 -1.2492998829729903e-04 0.0000000000000000e+00  1.1625057506412024e-06 2.5088457157358895e-07 0.0000000000000000e+00  1.8737422958934002e+00 9.8850538659197448e-02 0.0000000000000000e+00  1.1121562630952619e+00 -6.6484586690363943e-05 0.0000000000000000e+00  1.7943785425712924e+00 -1.3034445255028740e-01 0.0000000000000000e+00  -3.3787059742595294e-06 2.5446023304927754e-09 0.0000000000000000e+00  1.7993029994760104e+00 -1.5691874676815706e-01 0.0000000000000000e+00  -4.5441198348939975e-06 -2.6139124046167889e-07 0.0000000000000000e+00  1.1232866280702665e+00 -6.6778231701085296e-05 0.0000000000000000e+00  1.5656135472527777e+00 1.1951336826387572e-01 0.0000000000000000e+00  -2.7083004995504937e-06 2.6387524341295493e-07 0.0000000000000000e+00  1.7413381050993784e+00 1.1366948121380205e-01 0.0000000000000000e+00  1.3581894156936229e+00 -3.0500992705933794e-01 0.0000000000000000e+00  1.3393864275363978e+00 -1.2068794632056490e-01 0.0000000000000000e+00  1.3731538575513538e+00 1.2637836902108690e-01 0.0000000000000000e+00  2.7492313409140329e-08 2.1904171143015451e-07 0.0000000000000000e+00  1.1651273334173184e+00 -5.4907895056657851e-04 0.0000000000000000e+00  1.1113457311326833e+00 3.8686538429161200e-04 0.0000000000000000e+00  1.3416049466115840e-06 -5.6995140079511681e-09 0.0000000000000000e+00  1.1659077936385227e+00 5.4439095915231558e-06 0.0000000000000000e+00  1.0779577842288139e+00 -5.4587069729875350e-03 0.0000000000000000e+00  1.1303952326214564e+00 -4.0838686581379291e-02 0.0000000000000000e+00  1.1575662685030113e+00 -3.4806203532987239e-04 0.0000000000000000e+00  1.1128151661023300e+00 5.0973727931339285e-05 0.0000000000000000e+00  1.9298851973347997e+00 2.0082687997841056e-01 0.0000000000000000e+00  1.1881295500237972e+00 5.2943903045619490e-03 0.0000000000000000e+00  4.2436174990403175e-06 1.0682554345505318e-09 0.0000000000000000e+00  1.4556700490719372e-06 -2.7536205236605945e-07 0.0000000000000000e+00  -7.6026141148987985e-07 -5.6359609503372802e-08 0.0000000000000000e+00  6.5625207474588809e-01 -5.5844505812904335e-08 0.0000000000000000e+00  -1.6053134560279548e-06 8.9953967642037486e-10 0.0000000000000000e+00  1.1046430540975600e+00 -4.5535308090826258e-05 0.0000000000000000e+00  1.6017092991480744e+00 8.8295582567504985e-02 0.0000000000000000e+00  1.1657398060168447e+00 -1.2108128714313415e-05 0.0000000000000000e+00  -4.4553310860550282e-07 4.4547003594806086e-09 0.0000000000000000e+00  -4.6845878392348132e-06 4.3706175017970403e-10 0.0000000000000000e+00  2.7749058433055041e-07 -5.4504327163109154e-09 0.0000000000000000e+00  -1.8964968804315803e-06 4.3699923949059923e-09 0.0000000000000000e+00  -1.2380486968858490e-06 2.8563703842941139e-09 0.0000000000000000e+00  2.3603990011787010e-06 5.7594482333232166e-08 0.0000000000000000e+00  -7.9210648748424443e-08 1.9186423506958480e-08 0.0000000000000000e+00  -2.6672014123268498e-06 9.8951567980757284e-08 0.0000000000000000e+00  -5.4195199019176633e-07 -2.0523424281323620e-07 0.0000000000000000e+00  4.8822861175836931e-07 1.8843058998276232e-07 0.0000000000000000e+00  6.9508081949769656e-07 -6.0350659771515026e-08 0.0000000000000000e+00  -8.1008066466093222e-07 1.4242387721440726e-07 0.0000000000000000e+00  -2.2960165000145807e-06 3.1515900061305417e-07 0.0000000000000000e+00  -1.1422279414644234e-06 -3.6606600529418789e-07 0.0000000000000000e+00  -7.4208139200193579e-07 -3.0707226948022791e-07 0.0000000000000000e+00  -3.0953604362488080e-06 -4.2298900673571057e-09 0.0000000000000000e+00  -1.4021035792616612e-06 -2.0428165989852685e-09 0.0000000000000000e+00  -4.6763029301384296e-06 7.0359389076260821e-09 0.0000000000000000e+00  7.2326717441928179e-01 -5.5049912486603597e-02 0.0000000000000000e+00  1.0515603004132714e+00 -1.4509117071243914e-04 0.0000000000000000e+00  1.0167194538064905e+00 3.9158402159623844e-02 0.0000000000000000e+00  1.0794647711952150e+00 2.1707864836596869e-05 0.0000000000000000e+00  1.6661788624765310e+00 -8.5965415722406707e-02 0.0000000000000000e+00  -8.0982595565353161e-03 -1.1835056031244349e-02 0.0000000000000000e+00  3.7349083468927818e-02 -3.7684547247317665e-02 0.0000000000000000e+00  1.1320999634389175e+00 3.3226309840554497e-02 0.0000000000000000e+00  1.1020739658509726e+00 -1.1644751418569172e-04 0.0000000000000000e+00  1.1659656026018879e+00 -3.3670955808424840e-05 0.0000000000000000e+00  1.1664334892226791e+00 -1.2666818591881982e-02 0.0000000000000000e+00  1.0306509016700314e+00 -3.1878682501706047e-04 0.0000000000000000e+00  1.1658497226227662e+00 -6.4576802613051080e-05 0.0000000000000000e+00  1.1658458242940484e+00 -5.9399221425985991e-05 0.0000000000000000e+00  1.1657356604159774e+00 -3.3119568110915305e-05 0.0000000000000000e+00  1.1658717039913233e+00 -3.2660490658804340e-05 0.0000000000000000e+00  1.0485653650094591e+00 -6.4695345650688711e-05 0.0000000000000000e+00  1.0791620703158666e+00 -1.3105953128243083e-04 0.0000000000000000e+00  9.6388995169904312e-01 -1.4651108550509502e-02 0.0000000000000000e+00  1.0279478825836543e+00 3.7409066648520437e-03 0.0000000000000000e+00  2.6970313462776097e-01 8.3752598475323348e-02 0.0000000000000000e+00  1.2325821264672683e+00 -3.2334831846576859e-02 0.0000000000000000e+00  1.0062352638419707e+00 -1.0036914695707833e-01 0.0000000000000000e+00  1.1016925893710308e+00 -6.1646995049988711e-02 0.0000000000000000e+00  1.5643072437476961e+00 -1.4581748846012402e-01 0.0000000000000000e+00  1.1526983964242212e+00 -6.7752329630489582e-05 0.0000000000000000e+00  1.5602460894980625e+00 -2.9208574704804171e-02 0.0000000000000000e+00  1.5050402098915812e+00 3.7577324901257189e-02 0.0000000000000000e+00  1.1659856712524954e+00 2.0964477847762540e-05 0.0000000000000000e+00  1.4070763640352635e+00 -9.3850805914757973e-02 0.0000000000000000e+00  1.4701418833364688e+00 -1.0918598829604299e-01 0.0000000000000000e+00  1.1639138025727862e+00 -3.9287622180449837e-03 0.0000000000000000e+00  9.2202559063535430e-02 -8.9682721896119560e-02 0.0000000000000000e+00  3.7674667455068567e-01 3.1125399157211967e-02 0.0000000000000000e+00  1.1656741571121247e+00 -4.6520773586892950e-05 0.0000000000000000e+00  1.0857636637087762e+00 -1.4097818564664370e-05 0.0000000000000000e+00  1.1657603972255408e+00 -1.5051662625480808e-04 0.0000000000000000e+00  1.1956656595755482e+00 -1.2889416461255064e-02 0.0000000000000000e+00  8.9689269500331836e-01 1.2827693463498610e-02 0.0000000000000000e+00  1.0640687744670410e+00 1.7170003295518304e-04 0.0000000000000000e+00  1.1657564461625050e+00 6.7350619627138726e-05 0.0000000000000000e+00  9.4032403588883440e-01 1.0153340696245192e-01 0.0000000000000000e+00  1.0539377838394206e+00 1.4496167568243715e-04 0.0000000000000000e+00  6.5624911969690614e-01 5.1554333368333743e-08 0.0000000000000000e+00  1.1081026177252333e+00 2.0758670892525762e-02 0.0000000000000000e+00  1.6073776077983186e+00 3.3946230057074998e-02 0.0000000000000000e+00  1.4307701770001457e+00 -6.0569098506854921e-02 0.0000000000000000e+00  1.0830688323597384e+00 9.5152999821186093e-02 0.0000000000000000e+00  1.0273245355473049e+00 3.9021457776999856e-02 0.0000000000000000e+00  9.7363283462395134e-01 2.0334504947093553e-02 0.0000000000000000e+00  9.1222902271201201e-01 1.1065356015116078e-01 0.0000000000000000e+00  1.1783416573865653e+00 -1.6016771687525386e-03 0.0000000000000000e+00  1.6772390418911447e+00 1.4566074240286250e-01 0.0000000000000000e+00  1.1660875661602188e+00 -7.0008285564928860e-04 0.0000000000000000e+00  1.1665193568927881e+00 -1.3851195302340860e-03 0.0000000000000000e+00  1.6300786255973239e+00 -3.2954971274788435e-02 0.0000000000000000e+00  1.5082201615960646e+00 -1.4855913744857355e-01 0.0000000000000000e+00  1.1658816669663579e+00 1.4565725008930590e-05 0.0000000000000000e+00  1.1640814142602034e+00 -1.5283689529892706e-05 0.0000000000000000e+00  1.1658497478862331e+00 -1.1916195507628845e-04 0.0000000000000000e+00  1.0158352813711871e+00 -8.5731179132140598e-06 0.0000000000000000e+00  1.4660855461829452e+00 6.9907716399018605e-02 0.0000000000000000e+00  9.4177340263954068e-01 9.4457388097463943e-02 0.0000000000000000e+00  1.1653116965712607e+00 -1.9619095417425361e-04 0.0000000000000000e+00  1.2234239551780004e+00 1.6422082802685331e-01 0.0000000000000000e+00  1.0537309362247045e+00 1.0825312940839536e-04 0.0000000000000000e+00  1.1331845926110449e+00 -1.5748259648018289e-02 0.0000000000000000e+00  1.3733825445825396e+00 1.0296400034802305e-01 0.0000000000000000e+00  1.2317714755170559e+00 7.1610845975700430e-04 0.0000000000000000e+00  1.1648274448011120e+00 -1.2276757981001971e-04 0.0000000000000000e+00  1.1650976097180346e+00 -6.2608579142790481e-05 0.0000000000000000e+00  1.1659632474704102e+00 -2.5235840549134612e-04 0.0000000000000000e+00  1.1625403993136703e+00 8.6556262690902088e-05 0.0000000000000000e+00  9.1668957716807187e-01 -9.6250085699252892e-05 0.0000000000000000e+00  9.1495551052451218e-01 -1.6680834126390940e-03 0.0000000000000000e+00  8.6800696267880628e-01 -6.0966283823716124e-03 0.0000000000000000e+00  9.6168288517375466e-01 -3.2686963895774093e-02 0.0000000000000000e+00  1.1637209901511267e+00 -8.3038303864845639e-05 0.0000000000000000e+00  9.5927570824751562e-01 -3.0354204138188376e-05 0.0000000000000000e+00  1.1658266507342441e+00 -2.5119386457613218e-08 0.0000000000000000e+00  1.1651161102297349e+00 6.0662319472525721e-05 0.0000000000000000e+00  1.0233194700800750e+00 -1.8254470106237045e-02 0.0000000000000000e+00  8.5284234279991133e-01 1.0359977273543325e-02 0.0000000000000000e+00  1.1658186299922024e+00 -1.5349108452872918e-05 0.0000000000000000e+00  1.1645704007434825e+00 2.1735142336538326e-05 0.0000000000000000e+00  7.4179707935596639e-01 3.3655610550150789e-02 0.0000000000000000e+00  1.2467699483913346e+00 2.5802097394780989e-02 0.0000000000000000e+00  8.8108564068317752e-01 9.6373897926048026e-03 0.0000000000000000e+00  1.0041827880500098e+00 7.6492091769892858e-05 0.0000000000000000e+00  7.3865696816713200e-01 -7.9034655533167950e-02 0.0000000000000000e+00  1.2081628302245293e+00 -3.3155768878374133e-02 0.0000000000000000e+00  9.0819523662852519e-01 1.4164455999601225e-04 0.0000000000000000e+00  1.3266566770865480e+00 -1.2379433406888848e-02 0.0000000000000000e+00  1.5301541192526060e+00 4.8100017895174574e-01 0.0000000000000000e+00  1.0075046609534730e+00 1.8484609439893171e-01 0.0000000000000000e+00  9.7507322775126237e-01 3.1627744296353240e-04 0.0000000000000000e+00  1.3222081718837853e+00 -1.3141241192081607e-01 0.0000000000000000e+00  1.4454117253803465e+00 -5.4561538600178849e-01 0.0000000000000000e+00  9.5230337086482775e-01 -3.4611106800751570e-05 0.0000000000000000e+00  9.9591858908804154e-01 2.0223249534647986e-05 0.0000000000000000e+00  1.2224584366373272e+00 1.4963303441489877e-02 0.0000000000000000e+00  4.4094540176753583e-01 6.9141963733778247e-02 0.0000000000000000e+00  1.4062542068196338e+00 -2.1949068863401652e-07 0.0000000000000000e+00  1.1658423340359523e+00 -2.4011879506739730e-05 0.0000000000000000e+00  9.7563944512821377e-01 -4.9556702781939407e-04 0.0000000000000000e+00  1.4062507526406109e+00 -2.5433840166001359e-07 0.0000000000000000e+00  9.7529737056199084e-01 1.4348492729988289e-04 0.0000000000000000e+00  1.8322382542106976e+00 -3.3779836508671851e-01 0.0000000000000000e+00  1.1649102845535420e+00 -3.0200808790811464e-04 0.0000000000000000e+00  7.1548016500389633e-01 9.9642481011029752e-02 0.0000000000000000e+00  1.1658532073610661e+00 -3.4489568757050294e-05 0.0000000000000000e+00  9.5393308092527873e-01 5.1315575141104889e-04 0.0000000000000000e+00  8.0688976114555888e-01 4.4120288818462542e-04 0.0000000000000000e+00  1.1602225446026895e+00 -7.1223748302990623e-05 0.0000000000000000e+00  7.4208722551474826e-01 -2.6902502763546686e-02 0.0000000000000000e+00  9.1538494604706477e-01 1.2442484363299098e-06 0.0000000000000000e+00  1.3269998757