<?xml version="1.0"?>
<VTKFile type="UnstructuredGrid"  version="0.1"  >
<UnstructuredGrid>
<Piece  NumberOfPoints="2426" NumberOfCells="4534">
<Points>
<DataArray  type="Float64"  NumberOfComponents="3"  format="ascii">0 0.41 0  0 0 0  2.2 0 0  2.2 0.41 0  0.2404508497187474 0.2293892626146237 0  0.25 0.2 0  0.2404508497187474 0.1706107373853764 0  0.2154508497187474 0.1524471741852423 0  0.1845491502812526 0.1524471741852423 0  0.1595491502812526 0.1706107373853764 0  0.15 0.2 0  0.1595491502812526 0.2293892626146237 0  0.1845491502812527 0.2475528258147577 0  0.2154508497187474 0.2475528258147577 0  0.5404508497187474 0.2293892626146237 0  0.55 0.2 0  0.5404508497187474 0.1706107373853764 0  0.5154508497187473 0.1524471741852423 0  0.4845491502812526 0.1524471741852423 0  0.4595491502812526 0.1706107373853764 0  0.45 0.2 0  0.4595491502812526 0.2293892626146237 0  0.4845491502812526 0.2475528258147577 0  0.5154508497187473 0.2475528258147577 0  1.1 0 0  0 0.205 0  1.1 0.41 0  0.55 0 0  0.55 0.41 0  0.275 0 0  0.275 0.41 0  1.65 0.41 0  1.65 0 0  1.375 0 0  1.375 0.41 0  1.925 0 0  1.925 0.41 0  0.8250000000000001 0.41 0  0.8250000000000001 0 0  1.5125 0.205 0  1.7875 0.205 0  0.9625000000000001 0.205 0  1.2375 0.205 0  2.2 0.205 0  0.7560964076246335 0.2151713709677419 0  1.99375 0.2152743902439024 0  2.0625 0 0  0.6875 0 0  2.0625 0.41 0  2.2 0.3075 0  0.6875 0.41 0  1.7875 0.41 0  1.375 0.1486128048780488 0  1.5125 0 0  1.7875 0 0  1.5125 0.41 0  0.9625000000000001 0 0  0.9625000000000001 0.41 0  0.4125 0 0  0.1375 0 0  0.1375 0.41 0  0.4125 0.41 0  1.2375 0 0  1.1 0.1486128048780487 0  1.2375 0.41 0  1.65 0.1486128048780487 0  1.126715909090909 0.2793064024390244 0  1.676715909090909 0.2793064024390244 0  1.348284090909091 0.2793064024390244 0  0.34375 0.3032389320646208 0  1.894702181800738 0.1282910975492754 0  2.092797818199262 0.1282910975492754 0  1.85625 0.3075 0  0.8630851210521902 0.286932093388664 0  0.89375 0.1025 0  0.35 0.1090282786671641 0  0 0.3075 0  0 0.1025 0  0.6526217841291382 0.288229645480046 0  0.7562500000000001 0.09660248895515888 0  0.6568633732316684 0.1557582854763441 0  2.099172119769978 0.25625 0  1.002356446954348 0.1010393851523063 0  1.99375 0.08395950269330846 0  1.459960956013612 0.3075 0  1.569025960719943 0.2986889805672169 0  1.03125 0.3278689922742084 0  0.75625 0.3247156761655783 0  1.959375 0.3126371951219512 0  1.749222215368287 0.1025 0  1.275777784631713 0.1025 0  2.2 0.1025 0  1.225938124459196 0.3075 0  1.550777784631713 0.1025 0  1.44375 0.07430640243902442 0  1.16875 0.07430640243902437 0  0.3528655045338512 0.2063263890916129 0  0.5890337614812103 0.08775733857679162 0  0.8504912436891263 0.190072835691683 0  1.899250267340833 0.2229966846119207 0  0.1020898364287272 0.3140258291809757 0  1.766482954545455 0.2934032012195123 0  1.051658316544432 0.2265720188842194 0  0.2 0.3400647632937836 0  1.421109702350723 0.2261157654379721 0  0.4812500000000001 0.41 0  0.4324401666997539 0.3216425986889796 0  0.098916018031319 0.09171660955420841 0  0.9508742791313441 0.2921736960864468 0  2.13125 0 0  2.118919042110979 0.3422084711244843 0  1.30625 0.41 0  0.20625 0 0  1.597888256393107 0.2173787389261347 0  0.4812500000000001 0 0  0.4324082967851086 0.08384041677422771 0  1.829299675393195 0.07400700849299596 0  0.568219932524165 0.3212274660843853 0  1.71875 0.41 0  0.268005226542646 0.08512186835670006 0  1.16875 0.41 0  2.038220665644273 0.332420740103091 0  0.6678017527842831 0.07701763866051195 0  0.89375 0.41 0  0.5111435174287687 0.07335351331957608 0  0.176193934632343 0.0734896648625108 0  0.07390688010811153 0.1697064032433452 0  0.05452951551825875 0.25625 0  0.61875 0.41 0  1.452769549894695 0.1548122580621249 0  1.369219062229598 0.07430640243902442 0  1.30625 0 0  1.720943423819132 0.1714577452753128 0  1.157188124459196 0.205 0  1.094219062229598 0.07430640243902437 0  1.304056576180868 0.1714577452753128 0  1.67579304192913 0.07430640243902437 0  0.2672907219039591 0.3037570723459566 0  1.209670467133757 0.1362100266964769 0  1.58125 0 0  1.03125 0 0  0.06875000000000001 0.41 0  0 0.35875 0  1.58125 0.41 0  1.631724228912893 0.3381867502687533 0  0.8240147050827157 0.1225233169495944 0  1.825608881788174 0.14499488549201 0  1.85625 0 0  1.44375 0 0  1.44375 0.41 0  1.85625 0.41 0  2.13125 0.41 0  0.7562500000000001 0.41 0  0.7562500000000001 0 0  0.89375 0 0  0.34375 0 0  0.34375 0.41 0  0.20625 0.41 0  0.06875000000000001 0 0  1.16875 0 0  1.03125 0.41 0  0.61875 0 0  1.71875 0 0  1.99375 0 0  1.99375 0.41 0  0.3972301426712326 0.2593842555611471 0  1.340625 0.3489494290853124 0  1.134375 0.3489494290853123 0  1.700180620188976 0.3438659752031281 0  0.5003922072260507 0.341765274319271 0  0.6212513815748759 0.2209216137134851 0  0.6885607720119526 0.215393731583638 0  1.033412357328477 0.1612902025713047 0  2.135782184673599 0.07126652247502523 0  1.668441847249787 0.2129203728327609 0  1.295782514339747 0.2378437748815763 0  1.409375 0.3520314716057996 0  2.129248544730567 0.1906135162504124 0  2.060771381434487 0.1989445750470348 0  2.013252586573865 0.1496169464686054 0  1.942766402200229 0.1734448904596831 0  1.895522487186454 0.06076163953489683 0  2.069553871656643 0.06605731020975725 0  0.9281250000000001 0.3539050257418612 0  1.274680914880868 0.3520219391081363 0  0.3030138498135347 0.2488370856812789 0  0.8223773249563684 0.341761430177996 0  0.9018164060227267 0.2326477848736739 0  0.8143027982392851 0.2440265179987191 0  0.7225087161029304 0.2699907246386231 0  1.614713220494657 0.09473434380863296 0  0.378125 0.3566194660323104 0  0.309375 0.3566194660323104 0  1.72990325744076 0.2380068107952482 0  0.6915936999299305 0.3429472631234433 0  0.6268087624932918 0.3466455500035671 0  1.356580098625191 0.2120393231351682 0  0.3060160055995138 0.1590148921620778 0  0.3954648733249218 0.156380553890791 0  2.034370752044885 0.2668681600792073 0  1.51768709249349 0.3426260931494756 0  1.561883724969884 0.1650446847858835 0  1.197344062229598 0.2523725417393646 0  0.9281250000000001 0.05124999999999999 0  1.804085235518364 0.3468178408964637 0  1.817887819205233 0.2589243285818559 0  0.9107805776841645 0.1653834539923287 0  1.905897727272727 0.3485060975609756 0  0 0.05125 0  0.844212276491354 0.0614201194265309 0  0.378125 0.05244637078450034 0  1.008571329007178 0.2705955969954818 0  0.7724048032149464 0.1559079561351474 0  0.7203054377831548 0.04941826955193545 0  1.192836486056382 0.3562350748565544 0  0.5967108020713719 0.1479294686523888 0  1.28257088594801 0.2944411014911587 0  0.7041890234548132 0.1222025174424443 0  1.474860187679412 0.2504218616229368 0  1.406767003493824 0.2829282258560709 0  0.3201325899091991 0.05890121548989159 0  0.5979220912872258 0.2727591995766724 0  1.845656689180403 0.1998310418452388 0  2.144958525570388 0.2909790873294231 0  2.2 0.15375 0  1.57794966442982 0.3540357145964566 0  0.9483181579620558 0.1214693369582054 0  0.0496154796471391 0.333125 0  1.508991196088596 0.1421783375065625 0  0.09776612425612034 0.2204896805326566 0  1.50436820029908 0.06143401634903343 0  1.223857000523521 0.0823554862453532 0  0.2531953886959507 0.3582003209055908 0  1.153316824384777 0.1289850171317837 0  2.148922302309752 0.1258841779285271 0  1.621993280276081 0.2841214267927899 0  1.550118654119087 0.2461998729100966 0  1.327182649291491 0.1216967252533594 0  1.753125 0.04556020050186112 0  1.271875 0.04556020050186116 0  0.9824282234771738 0.05051969257615314 0  1.039510847866381 0.05683351822678641 0  1.94956388244759 0.1180512551534177 0  1.949997712993411 0.04965831614304109 0  1.771961817615021 0.1530278789497521 0  1.909246823951428 0.2812757146784527 0  1.101974016627944 0.2038045618205013 0  0.7906250000000001 0.0444674049654372 0  1.948575539857022 0.2445328248721197 0  1.697271520964565 0.1233917627620729 0  1.065625 0.3689344961371042 0  1.085849084308977 0.3170853572226867 0  0.9840604787624379 0.3582077516409966 0  1.577403511714593 0.05463601888079143 0  0.05622663515370135 0.05493816910862376 0  0.8762396958822678 0.3392249777398821 0  1.751571320346033 0.3651102912045228 0  1.055327852410105 0.111864799513911 0  0.1583785085108421 0.2994699345738728 0  0.1455283439499995 0.3542795598723423 0  2.2 0.35875 0  0.225705107073232 0.05084786997482401 0  0.1455852234589313 0.1166494778469164 0  1.466879772203159 0.3611261772912453 0  1.990280163552011 0.3564754268533217 0  1.17471064520912 0.2990917256188288 0  0.7221925551074015 0.1739659241003985 0  0 0.25625 0  2.2 0.25625 0  2.2 0.05125 0  0 0.15375 0  1.853978576207987 0.35875 0  0.21965520498276 0.1015543880164422 0  1.515638456102889 0.2882700110184686 0  0.09048297387599738 0.3637717362208066 0  2.150453692751374 0.2387066338105111 0  1.323782677156475 0.04897634338873398 0  1.409375 0.03715320121951221 0  1.406484531114799 0.1087852750766809 0  1.134375 0.03715320121951218 0  1.627401732573545 0.04552157221025036 0  0.446875 0.3713289093361426 0  2.045405893604797 0.1105340662939892 0  1.255408269734577 0.1577307500159216 0  2.028125 0.03707597992059326 0  0.04420832937638274 0.128125 0  0.5817551710628505 0.3702615006034757 0  0.1197849154434487 0.2663398672460083 0  1.248258025468107 0.2565907092181813 0  0.1300647302703173 0.0508462728378621 0  0.7738123537510222 0.2761231499240648 0  1.203125 0.0366132337404304 0  0.5444207041612499 0.111205399508622 0  0.8016457771828226 0.1964238426015905 0  2.072662025974815 0.2975086504196739 0  0.4019040438866802 0.2103993403217561 0  0.4677372330974851 0.04827477407630658 0  0.8677218578847617 0.1432970430140788 0  1.058011122005847 0.2758866204059919 0  0.4429405887974043 0.2746184809910084 0  0.5843750000000001 0.03726989681835222 0  0.6318596133730142 0.1128692182767254 0  0.4862628454464408 0.2957029785303028 0  0.7805186758662764 0.3673578380827891 0  1.887722846421017 0.1760882698830035 0  0.3498893058880703 0.256189258793856 0  1.472640588990488 0.1118278026240017 0  1.865937103925594 0.2604137786483804 0
[...]
<PointData  Vectors="f_37"> 
<DataArray  type="Float64"  Name="f_37"  NumberOfComponents="3" format="ascii">-6.0801293503957376e-07 2.1412119732548889e-08 0.0000000000000000e+00  3.6631811697908989e-07 -2.8246491761407533e-08 0.0000000000000000e+00  8.2431519767074660e-08 -1.9430177215782989e-08 0.0000000000000000e+00  2.0514493039831429e-06 1.4410182348568105e-08 0.0000000000000000e+00  -1.0195303488015944e-06 2.4931170744452215e-07 0.0000000000000000e+00  -7.5995178865391065e-07 5.0851650167208286e-08 0.0000000000000000e+00  -1.6539090156117074e-06 3.5943617445736607e-07 0.0000000000000000e+00  1.0780977994116276e-06 2.8587458878758693e-07 0.0000000000000000e+00  2.8526718341832081e-06 -3.1199360215959034e-07 0.0000000000000000e+00  -7.8306484465370034e-07 4.8440634771736006e-08 0.0000000000000000e+00  -1.6662481662148311e-06 8.7356098672696108e-07 0.0000000000000000e+00  5.3825576313060500e-07 2.3457799376220263e-06 0.0000000000000000e+00  -3.7421580355713939e-06 -1.1424544815259558e-06 0.0000000000000000e+00  -3.4124517640334920e-06 -9.5180928669131944e-07 0.0000000000000000e+00  -2.5401143271256654e-06 -1.3607891081318837e-07 0.0000000000000000e+00  -1.6073608562904734e-06 -1.5716172483909313e-06 0.0000000000000000e+00  -3.2838633010167050e-06 -4.1354711885761723e-07 0.0000000000000000e+00  -1.3249588007689359e-06 2.4523237107876660e-07 0.0000000000000000e+00  -2.0910868526576791e-09 -7.1914272736248067e-07 0.0000000000000000e+00  -3.8718228817704970e-06 8.0101928721489058e-07 0.0000000000000000e+00  -6.9576426838980515e-07 9.7378161990144277e-07 0.0000000000000000e+00  8.3033917285302668e-07 3.7705526413702779e-07 0.0000000000000000e+00  -2.5793793413765923e-06 2.9199672804186821e-07 0.0000000000000000e+00  -2.3580029297983481e-06 1.2852729232625774e-07 0.0000000000000000e+00  -6.9515026997399163e-06 4.0250730753291226e-07 0.0000000000000000e+00  1.5000025379203794e+00 -2.2149964279932264e-08 0.0000000000000000e+00  5.6859165182595699e-06 3.5030354355010967e-07 0.0000000000000000e+00  -2.5663215638136038e-06 -8.3430676121109423e-09 0.0000000000000000e+00  -6.0157147988410914e-07 1.2049700609099939e-07 0.0000000000000000e+00  -2.5459961211050453e-06 8.2480833647231413e-08 0.0000000000000000e+00  -1.1668110662287680e-06 -3.1982061119224663e-08 0.0000000000000000e+00  -6.1128852337576350e-06 -5.3461047086919176e-07 0.0000000000000000e+00  1.8906487664718490e-06 -2.8596275262940142e-07 0.0000000000000000e+00  3.6975199666792802e-07 8.1707782569601068e-07 0.0000000000000000e+00  -7.5506107275232451e-07 5.5520465910665273e-07 0.0000000000000000e+00  2.5686123784592173e-06 -2.9315257564217662e-07 0.0000000000000000e+00  -1.9033634663760662e-06 -3.9563743936412241e-07 0.0000000000000000e+00  -2.1284876802934180e-06 -2.9698790672850153e-07 0.0000000000000000e+00  -1.7422203943231881e-07 -5.7459877781787096e-07 0.0000000000000000e+00  1.0955066478901936e+00 -2.4853836610044582e-02 0.0000000000000000e+00  1.0440307315020478e+00 5.0886268790637720e-02 0.0000000000000000e+00  6.2025760441698541e-01 9.6575218771368140e-02 0.0000000000000000e+00  9.2073680238216615e-01 -8.7850106850605902e-02 0.0000000000000000e+00  1.2200952169284807e+00 -2.9100916552199055e-02 0.0000000000000000e+00  2.0645924456190332e-01 -8.9332547395746684e-02 0.0000000000000000e+00  1.1164312720390965e+00 3.1309051164260776e-02 0.0000000000000000e+00  -3.4049402305685393e-06 2.3756566328035771e-07 0.0000000000000000e+00  -2.6276261366953149e-06 -3.8515726218288660e-09 0.0000000000000000e+00  -1.0903870859363901e-06 2.1033761622182924e-07 0.0000000000000000e+00  1.2243748336290172e+00 1.8150696732439980e-03 0.0000000000000000e+00  5.8398753228004976e-07 6.4479296115608714e-08 0.0000000000000000e+00  1.5749515892499355e-06 8.4555215806337828e-07 0.0000000000000000e+00  1.4038683406860883e+00 1.7107672381672673e-02 0.0000000000000000e+00  9.8944842325256850e-07 -1.3842394992315590e-07 0.0000000000000000e+00  -2.9435664049766270e-06 3.0529120517057219e-07 0.0000000000000000e+00  6.9131171673794158e-06 1.6084807416806300e-07 0.0000000000000000e+00  8.5135095404657980e-07 1.6535808117351546e-07 0.0000000000000000e+00  -2.7254106416852701e-06 3.8683829584767055e-08 0.0000000000000000e+00  -7.5763238187847375e-07 -5.4060299069705645e-08 0.0000000000000000e+00  3.1176671931944005e-07 6.5551011443286344e-08 0.0000000000000000e+00  6.1301204246737939e-07 1.3465326488467979e-07 0.0000000000000000e+00  -2.7290323974584940e-06 1.0788248121429567e-07 0.0000000000000000e+00  6.5059256217241618e-06 -9.6890225720644288e-07 0.0000000000000000e+00  1.2127590218708659e+00 -2.2744301875663855e-02 0.0000000000000000e+00  -5.6965152970211423e-06 -8.6390649732873927e-07 0.0000000000000000e+00  1.3064696827753197e+00 -1.5539611030943323e-03 0.0000000000000000e+00  1.5684834168726527e+00 -3.3791750463641218e-02 0.0000000000000000e+00  1.3430445237911144e+00 3.5407281003430401e-02 0.0000000000000000e+00  1.4448207842567722e+00 1.5814392992215785e-02 0.0000000000000000e+00  1.9625566479510597e+00 3.1612361137442764e-02 0.0000000000000000e+00  1.3408417784769475e+00 1.3559985896513369e-02 0.0000000000000000e+00  1.2368165149210999e+00 -5.3117514080603604e-04 0.0000000000000000e+00  1.3063272294311234e+00 -1.0256659725574080e-02 0.0000000000000000e+00  1.6491548693945237e+00 -7.6764856147278876e-02 0.0000000000000000e+00  1.5328675290352378e+00 8.6548740576493116e-02 0.0000000000000000e+00  1.8641666907600649e+00 1.1713657967790121e-02 0.0000000000000000e+00  1.1249986024072391e+00 -1.8333348665259614e-07 0.0000000000000000e+00  1.1250027461140661e+00 1.7323584644844730e-09 0.0000000000000000e+00  1.7709756468685258e+00 -1.6936951625082694e-01 0.0000000000000000e+00  1.6597279449217222e+00 1.4773200708914247e-01 0.0000000000000000e+00  7.2425391725907762e-01 9.4838682779265923e-02 0.0000000000000000e+00  1.3235656179689290e+00 -1.2594967320916639e-02 0.0000000000000000e+00  1.4315182193172633e+00 -3.0978592077219231e-03 0.0000000000000000e+00  1.1065015933181064e+00 -1.2242406866771777e-02 0.0000000000000000e+00  1.4069029402654534e+00 -2.3901194019756315e-02 0.0000000000000000e+00  1.3709164914663499e+00 5.0770426648792367e-02 0.0000000000000000e+00  1.2368318047866771e+00 -4.3853911373226265e-02 0.0000000000000000e+00  1.5375572482997519e+00 -1.1632229625569006e-01 0.0000000000000000e+00  1.2542419227011010e+00 2.4142276712679732e-02 0.0000000000000000e+00  1.2783439504562506e+00 -1.8253948035781346e-02 0.0000000000000000e+00  1.3985265144495556e+00 2.2608938422190111e-02 0.0000000000000000e+00  1.1914813778358555e+00 6.2376729143577498e-03 0.0000000000000000e+00  1.3625116743222285e+00 4.2556016347380196e-02 0.0000000000000000e+00  1.3346495173720061e+00 -1.5175496468500402e-02 0.0000000000000000e+00  1.0775639479785430e+00 -2.1030589786254401e-02 0.0000000000000000e+00  1.1062410151949189e+00 2.6765385218628489e-02 0.0000000000000000e+00  -3.3141186256112587e-01 -7.7516972850336574e-03 0.0000000000000000e+00  1.7812028614232103e+00 1.2354213218455355e-01 0.0000000000000000e+00  5.0631929680351595e-01 5.4115304176329142e-02 0.0000000000000000e+00  1.1542525553706624e+00 -7.1023088095092071e-02 0.0000000000000000e+00  1.1817822221391410e+00 2.5540759861671730e-01 0.0000000000000000e+00  1.4275993172663977e+00 -3.3185163485672561e-02 0.0000000000000000e+00  1.1743724343940416e+00 -6.1898119304345196e-02 0.0000000000000000e+00  1.3810436483185751e+00 2.1790567468118335e-01 0.0000000000000000e+00  1.0948238498592144e+00 1.0085875556452678e-01 0.0000000000000000e+00  1.0399120350874423e-06 -3.3274167193099485e-09 0.0000000000000000e+00  1.8418092224220253e+00 -6.3853034869357908e-02 0.0000000000000000e+00  1.1436426879686601e+00 -2.5645829092141509e-01 0.0000000000000000e+00  1.6581637424051034e+00 -7.0566019679234149e-02 0.0000000000000000e+00  -1.7587748749381162e-06 -1.7340810054048662e-07 0.0000000000000000e+00  1.0032661253895145e+00 -1.7188893742137482e-03 0.0000000000000000e+00  -7.3651219645994881e-06 -3.3086227263384198e-07 0.0000000000000000e+00  -6.8032965315141218e-06 2.6543450573257990e-07 0.0000000000000000e+00  1.1336232524962517e+00 -8.5226183385736634e-02 0.0000000000000000e+00  8.3996117943989672e-07 -2.3528143078216703e-08 0.0000000000000000e+00  1.8236256843540493e+00 7.6123499013478590e-02 0.0000000000000000e+00  1.0966972987823735e+00 7.7056668038015582e-03 0.0000000000000000e+00  1.7893145714482501e+00 -1.1520545453504685e-01 0.0000000000000000e+00  -5.7573487584561247e-06 5.5050264858458090e-08 0.0000000000000000e+00  1.7978025483277473e+00 -1.4064136194510440e-01 0.0000000000000000e+00  7.3051978586522565e-07 -5.3792521394215268e-07 0.0000000000000000e+00  1.1202107673074018e+00 -5.1506863062724959e-03 0.0000000000000000e+00  1.6066186291632414e+00 1.2976785106888952e-01 0.0000000000000000e+00  -6.6945763111935533e-06 -2.6386071119900760e-07 0.0000000000000000e+00  1.7230173548489227e+00 7.3279378135836210e-02 0.0000000000000000e+00  1.3597544259199252e+00 -3.0217508762684053e-01 0.0000000000000000e+00  1.3400057341650975e+00 -1.2299830369418077e-01 0.0000000000000000e+00  1.3729515380553934e+00 1.2455019197704853e-01 0.0000000000000000e+00  4.8472976990820872e-07 5.5351756133049652e-08 0.0000000000000000e+00  1.1803435055427756e+00 3.3391545098340178e-02 0.0000000000000000e+00  1.0348497936901453e+00 -3.7470180841264855e-02 0.0000000000000000e+00  6.3897337048412870e-06 3.4139969419889411e-07 0.0000000000000000e+00  1.1789112806816744e+00 6.0688632420362799e-02 0.0000000000000000e+00  9.3202368957949455e-01 -1.2697737361545045e-01 0.0000000000000000e+00  1.1348131919401467e+00 4.4523904791571849e-03 0.0000000000000000e+00  1.3360577364829300e+00 6.3924198431278209e-02 0.0000000000000000e+00  1.0763782840426854e+00 -1.1144167893696875e-02 0.0000000000000000e+00  1.9203146728145017e+00 1.8559522025514166e-01 0.0000000000000000e+00  1.5443153806011665e+00 3.8261206013387242e-02 0.0000000000000000e+00  2.9987073493478646e-06 -1.1054746415567114e-07 0.0000000000000000e+00  -3.7675179510338474e-06 5.4238700351456061e-07 0.0000000000000000e+00  -7.8312766861897204e-07 -5.3812377997783500e-08 0.0000000000000000e+00  6.5625204478417543e-01 1.4747818792259584e-08 0.0000000000000000e+00  -1.8705176291451006e-06 -5.4846469404483595e-07 0.0000000000000000e+00  1.0745704468042812e+00 3.6381863764063854e-02 0.0000000000000000e+00  1.6580373192387239e+00 1.5254004000838786e-01 0.0000000000000000e+00  1.2051443932078283e+00 -1.1269355477722606e-02 0.0000000000000000e+00  -1.4369395388903915e-06 -3.9181671255729348e-07 0.0000000000000000e+00  -7.2295453291420656e-06 2.3887053972307673e-07 0.0000000000000000e+00  5.2253440104543704e-06 7.1317170207978717e-07 0.0000000000000000e+00  2.6886678709968577e-06 3.3180041286478295e-07 0.0000000000000000e+00  2.0047603210644484e-07 1.0558714856887609e-07 0.0000000000000000e+00  2.2915607955835638e-07 5.0287892180671478e-08 0.0000000000000000e+00  -3.0116287178441361e-06 -2.5958234275661093e-07 0.0000000000000000e+00  3.7804691664324389e-06 -3.5063664860954480e-07 0.0000000000000000e+00  2.6703237816168130e-07 -8.8212140870943153e-09 0.0000000000000000e+00  2.6019267642808851e-07 2.4061395179150648e-08 0.0000000000000000e+00  1.0955070857413293e-06 -9.5767891719286922e-08 0.0000000000000000e+00  -8.3655947598167712e-07 1.4806601930737638e-07 0.0000000000000000e+00  -1.3324787185847666e-06 -2.2093373192512331e-07 0.0000000000000000e+00  3.2382876843971396e-06 1.0530219320953442e-06 0.0000000000000000e+00  -3.3844020313641255e-06 -1.2155508820402655e-07 0.0000000000000000e+00  -2.5158185986247101e-06 6.0486994987334377e-07 0.0000000000000000e+00  3.6750248531390521e-07 3.2373792547116123e-07 0.0000000000000000e+00  -6.0604067224422343e-06 -1.0867984267359382e-07 0.0000000000000000e+00  7.2905692447345105e-01 -3.9818910939147398e-02 0.0000000000000000e+00  8.9440553363177355e-01 -1.0109602687891833e-02 0.0000000000000000e+00  8.4700406187325727e-01 1.7672577154289413e-02 0.0000000000000000e+00  1.0377863205013000e+00 -3.6887373513902521e-03 0.0000000000000000e+00  1.6546452879620632e+00 -7.2134967413341078e-02 0.0000000000000000e+00  1.7814900940744928e-02 -1.2188148811612233e-02 0.0000000000000000e+00  4.7926337155622029e-02 -6.0627832517246905e-02 0.0000000000000000e+00  1.0388316385331779e+00 3.4824049882619466e-02 0.0000000000000000e+00  1.0321260040701623e+00 3.6959927774171610e-03 0.0000000000000000e+00  1.0238890154372786e+00 -2.0465220527448747e-02 0.0000000000000000e+00  1.0179070794087151e+00 6.6691006584126879e-03 0.0000000000000000e+00  8.2396935376102198e-01 -1.0969049547026285e-02 0.0000000000000000e+00  1.1555334273947320e+00 2.0594319243854457e-02 0.0000000000000000e+00  1.1510692047192734e+00 6.2206855480282652e-02 0.0000000000000000e+00  1.3103026531222071e+00 3.7946598663677028e-02 0.0000000000000000e+00  1.2009943645989594e+00 -2.1937480302457050e-04 0.0000000000000000e+00  9.2138490258666939e-01 4.4844734980536427e-03 0.0000000000000000e+00  9.8114069697686690e-01 -9.2264584947891280e-03 0.0000000000000000e+00  8.9057719859759310e-01 -2.7731720802221086e-02 0.0000000000000000e+00  8.5019981883480045e-01 9.6348623433735701e-03 0.0000000000000000e+00  2.3158173275283278e-01 5.3045379327563716e-02 0.0000000000000000e+00  1.2311932421636347e+00 -6.1059648946789995e-02 0.0000000000000000e+00  8.5343771390716416e-01 3.7954690133155835e-03 0.0000000000000000e+00  1.0154089265050765e+00 -1.0152151364223370e-01 0.0000000000000000e+00  1.5415350007710567e+00 -1.7827807075453009e-01 0.0000000000000000e+00  1.3107519184431591e+00 -1.0380272432126661e-04 0.0000000000000000e+00  1.5356805230531674e+00 -2.6629687059220662e-02 0.0000000000000000e+00  1.4853179773018090e+00 3.2643396691807249e-02 0.0000000000000000e+00  1.1205774179101369e+00 6.3095559758912456e-02 0.0000000000000000e+00  1.4218786989103698e+00 -1.0753068599146398e-01 0.0000000000000000e+00  1.4765018319113172e+00 -1.0250650364069377e-01 0.0000000000000000e+00  9.9138974900627730e-01 1.0667810331870820e-01 0.0000000000000000e+00  7.9279791018774901e-02 -5.2980818102593287e-02 0.0000000000000000e+00  2.8062762163047894e-01 2.8313987718026588e-02 0.0000000000000000e+00  1.2901941937090182e+00 1.4162015288685079e-02 0.0000000000000000e+00  9.4379923849865466e-01 2.9512791735098933e-02 0.0000000000000000e+00  1.0530317609818420e+00 -7.7346606162170276e-02 0.0000000000000000e+00  1.3684856071979106e+00 -2.3599909590932926e-02 0.0000000000000000e+00  7.6863255639247652e-01 9.4466554847010501e-03 0.0000000000000000e+00  9.5691865189020997e-01 -9.0709815427319814e-03 0.0000000000000000e+00  1.3799179125025860e+00 -5.4196245251363406e-02 0.0000000000000000e+00  1.1240110715028451e+00 1.2084761903903934e-01 0.0000000000000000e+00  9.3598230209971922e-01 1.7845010258644819e-02 0.0000000000000000e+00  6.5624906494840940e-01 8.7009659088322974e-08 0.0000000000000000e+00  1.0600355139341775e+00 6.0753783600909418e-02 0.0000000000000000e+00  1.5661928519721191e+00 3.7073035197110069e-02 0.0000000000000000e+00  1.6631408371723559e+00 -8.8020084326997927e-02 0.0000000000000000e+00  1.0936554512838026e+00 1.1555473454277095e-01 0.0000000000000000e+00  1.0702020821500409e+00 7.3293434620125095e-02 0.0000000000000000e+00  7.5439664522998684e-01 2.5074199676808545e-02 0.0000000000000000e+00  7.9129519935814896e-01 8.6822955002153493e-02 0.0000000000000000e+00  1.4325384765895854e+00 2.8157159987804346e-02 0.0000000000000000e+00  1.6643043486427667e+00 1.6415182537786255e-01 0.0000000000000000e+00  1.4569565912357851e+00 -3.1859023509541118e-02 0.0000000000000000e+00  1.5417842109611528e+00 -1.8551140716713790e-02 0.0000000000000000e+00  1.6067895026934755e+00 -1.6613630154050044e-02 0.0000000000000000e+00  1.5123090811859050e+00 -1.3986733028143150e-01 0.0000000000000000e+00  1.0640964519398299e+00 -5.1324740826645128e-02 0.0000000000000000e+00  1.3268876096326847e+00 -2.3638266319344892e-02 0.0000000000000000e+00  1.1951557691132781e+00 -4.9760943278383714e-03 0.0000000000000000e+00  8.3867328007367692e-01 3.6102808898694598e-02 0.0000000000000000e+00  1.5428018716439407e+00 5.4353655958086070e-02 0.0000000000000000e+00  9.4147819074123351e-01 9.3557138878677892e-02 0.0000000000000000e+00  1.1900292749336305e+00 -1.0888274220977335e-02 0.0000000000000000e+00  1.2233264847258378e+00 1.6036093501039667e-01 0.0000000000000000e+00  9.2720726717952262e-01 -6.2560454001201202e-03 0.0000000000000000e+00  1.1910855519813508e+00 2.8092013637346407e-02 0.0000000000000000e+00  1.3613316651157785e+00 9.7066218402151336e-02 0.0000000000000000e+00  1.5016059734350005e+00 8.6990398396346019e-03 0.0000000000000000e+00  1.2162790271001898e+00 8.3684023164947927e-03 0.0000000000000000e+00  1.3806474035050833e+00 5.7821711322194935e-02 0.0000000000000000e+00  1.4157187602644767e+00 -4.1356102262379249e-02 0.0000000000000000e+00  1.4769758809694424e+00 6.4030497131330405e-03 0.0000000000000000e+00  7.4158273233196648e-01 -5.4254148523293997e-03 0.0000000000000000e+00  6.0083163134780271e-01 -4.2592547327148910e-03 0.0000000000000000e+00  7.3781502710646174e-01 -7.8178430919925192e-03 0.0000000000000000e+00  8.4875671470681324e-01 -1.0652330339067482e-02 0.0000000000000000e+00  1.3487462567549857e+00 3.5108371788201961e-02 0.0000000000000000e+00  7.8018238592605538e-01 -5.9130046146053262e-03 0.0000000000000000e+00  1.2101817517844893e+00 2.3114842210720177e-02 0.0000000000000000e+00  1.3494146100295863e+00 1.0014805412828650e-02 0.0000000000000000e+00  9.1234020138740501e-01 -8.2736038235116868e-02 0.0000000000000000e+00  8.0867081854383061e-01 4.7732165667269386e-02 0.0000000000000000e+00  1.1953591686383089e+00 -1.1858891649473364e-02 0.0000000000000000e+00  1.3828842381805966e+00 2.1760015651746636e-02 0.0000000000000000e+00  5.2228344969704166e-01 -4.0317948512620010e-03 0.0000000000000000e+00  1.3280590357056030e+00 -2.4985863339930491e-02 0.0000000000000000e+00  7.5432553855243512e-01 -2.3157918221455315e-02 0.0000000000000000e+00  8.3447346906493614e-01 -7.5217441486438424e-03 0.0000000000000000e+00  7.3884043971368740e-01 -7.9231222491487230e-02 0.0000000000000000e+00  1.2116899676711588e+00 -4.7397981047672615e-02 0.0000000000000000e+00  7.2989788791344101e-01 -7.8034145186838717e-03 0.0000000000000000e+00  1.4739304856857725e+00 -1.2999283070369917e-02 0.0000000000000000e+00  1.5281897624856249e+00 4.7615819698186840e-01 0.0000000000000000e+00  1.0045418670968842e+00 1.8223409232385776e-01 0.0000000000000000e+00  8.3363248769310494e-01 1.3514141541748513e-03 0.0000000000000000e+00  1.3189005055246867e+00 -1.2538484050191140e-01 0.0000000000000000e+00  1.4490760004520014e+00 -5.4613063619066882e-01 0.0000000000000000e+00  6.8051204477755123e-01 5.1505809440345702e-03 0.0000000000000000e+00  8.6554435757819814e-01 5.0569430720322651e-03 0.0000000000000000e+00  1.4284030166428718e+00 2.7492108979134969e-02 0.0000000000000000e+00  3.8964412279679111e-01 4.0189667898866431e-02 0.0000000000000000e+00  1.4062540274035216e+00 9.2755403725469206e-08 0.0000000000000000e+00  1.3356198276213336e+00 -2.6423060671233387e-02 0.0000000000000000e+00  8.2827937902732707e-01 2.2872228117475453e-03 0.0000000000000000e+00  1.4062506178399492e+00 7.7188578199891459e-09 0.0000000000000000e+00  7.9982772411295344e-01 6.5197971511245754e-03 0.0000000000000000e+00  1.8374545339961172e+00 -3.2942649686608122e-01 0.0000000000000000e+00  1.4947465181114632e+00 -8.6404325989983995e-03 0.0000000000000000e+00  7.1437044205183653e-01 9.8541352033652427e-02 0.0000000000000000e+00  1.3027677004945601e+00 -3.1181634162923563e-02 0.0000000000000000e+00  6.6802344282777537e-01 -1.8188567750170598e-02 0.0000000000000000e+00  5.4200718237633572e-01 -1.1529005653020905e-02 0.0000000000000000e+00  1.3393054150623229e+00 -4.2459725796321235e-02 0.0000000000000000e+00  5.0031832670280285e-01 4.2729434634405554e-03 0.0000000000000000e+00  7.0952345482370249e-01 -7.8802001235599405e-03 0.0000000000000000e+00  1.3072194907233363e+00 -4.549419