<?xml version="1.0"?>
<VTKFile type="UnstructuredGrid"  version="0.1"  >
<UnstructuredGrid>
<Piece  NumberOfPoints="2426" NumberOfCells="4534">
<Points>
<DataArray  type="Float64"  NumberOfComponents="3"  format="ascii">0 0.41 0  0 0 0  2.2 0 0  2.2 0.41 0  0.2404508497187474 0.2293892626146237 0  0.25 0.2 0  0.2404508497187474 0.1706107373853764 0  0.2154508497187474 0.1524471741852423 0  0.1845491502812526 0.1524471741852423 0  0.1595491502812526 0.1706107373853764 0  0.15 0.2 0  0.1595491502812526 0.2293892626146237 0  0.1845491502812527 0.2475528258147577 0  0.2154508497187474 0.2475528258147577 0  0.5404508497187474 0.2293892626146237 0  0.55 0.2 0  0.5404508497187474 0.1706107373853764 0  0.5154508497187473 0.1524471741852423 0  0.4845491502812526 0.1524471741852423 0  0.4595491502812526 0.1706107373853764 0  0.45 0.2 0  0.4595491502812526 0.2293892626146237 0  0.4845491502812526 0.2475528258147577 0  0.5154508497187473 0.2475528258147577 0  1.1 0 0  0 0.205 0  1.1 0.41 0  0.55 0 0  0.55 0.41 0  0.275 0 0  0.275 0.41 0  1.65 0.41 0  1.65 0 0  1.375 0 0  1.375 0.41 0  1.925 0 0  1.925 0.41 0  0.8250000000000001 0.41 0  0.8250000000000001 0 0  1.5125 0.205 0  1.7875 0.205 0  0.9625000000000001 0.205 0  1.2375 0.205 0  2.2 0.205 0  0.7560964076246335 0.2151713709677419 0  1.99375 0.2152743902439024 0  2.0625 0 0  0.6875 0 0  2.0625 0.41 0  2.2 0.3075 0  0.6875 0.41 0  1.7875 0.41 0  1.375 0.1486128048780488 0  1.5125 0 0  1.7875 0 0  1.5125 0.41 0  0.9625000000000001 0 0  0.9625000000000001 0.41 0  0.4125 0 0  0.1375 0 0  0.1375 0.41 0  0.4125 0.41 0  1.2375 0 0  1.1 0.1486128048780487 0  1.2375 0.41 0  1.65 0.1486128048780487 0  1.126715909090909 0.2793064024390244 0  1.676715909090909 0.2793064024390244 0  1.348284090909091 0.2793064024390244 0  0.34375 0.3032389320646208 0  1.894702181800738 0.1282910975492754 0  2.092797818199262 0.1282910975492754 0  1.85625 0.3075 0  0.8630851210521902 0.286932093388664 0  0.89375 0.1025 0  0.35 0.1090282786671641 0  0 0.3075 0  0 0.1025 0  0.6526217841291382 0.288229645480046 0  0.7562500000000001 0.09660248895515888 0  0.6568633732316684 0.1557582854763441 0  2.099172119769978 0.25625 0  1.002356446954348 0.1010393851523063 0  1.99375 0.08395950269330846 0  1.459960956013612 0.3075 0  1.569025960719943 0.2986889805672169 0  1.03125 0.3278689922742084 0  0.75625 0.3247156761655783 0  1.959375 0.3126371951219512 0  1.749222215368287 0.1025 0  1.275777784631713 0.1025 0  2.2 0.1025 0  1.225938124459196 0.3075 0  1.550777784631713 0.1025 0  1.44375 0.07430640243902442 0  1.16875 0.07430640243902437 0  0.3528655045338512 0.2063263890916129 0  0.5890337614812103 0.08775733857679162 0  0.8504912436891263 0.190072835691683 0  1.899250267340833 0.2229966846119207 0  0.1020898364287272 0.3140258291809757 0  1.766482954545455 0.2934032012195123 0  1.051658316544432 0.2265720188842194 0  0.2 0.3400647632937836 0  1.421109702350723 0.2261157654379721 0  0.4812500000000001 0.41 0  0.4324401666997539 0.3216425986889796 0  0.098916018031319 0.09171660955420841 0  0.9508742791313441 0.2921736960864468 0  2.13125 0 0  2.118919042110979 0.3422084711244843 0  1.30625 0.41 0  0.20625 0 0  1.597888256393107 0.2173787389261347 0  0.4812500000000001 0 0  0.4324082967851086 0.08384041677422771 0  1.829299675393195 0.07400700849299596 0  0.568219932524165 0.3212274660843853 0  1.71875 0.41 0  0.268005226542646 0.08512186835670006 0  1.16875 0.41 0  2.038220665644273 0.332420740103091 0  0.6678017527842831 0.07701763866051195 0  0.89375 0.41 0  0.5111435174287687 0.07335351331957608 0  0.176193934632343 0.0734896648625108 0  0.07390688010811153 0.1697064032433452 0  0.05452951551825875 0.25625 0  0.61875 0.41 0  1.452769549894695 0.1548122580621249 0  1.369219062229598 0.07430640243902442 0  1.30625 0 0  1.720943423819132 0.1714577452753128 0  1.157188124459196 0.205 0  1.094219062229598 0.07430640243902437 0  1.304056576180868 0.1714577452753128 0  1.67579304192913 0.07430640243902437 0  0.2672907219039591 0.3037570723459566 0  1.209670467133757 0.1362100266964769 0  1.58125 0 0  1.03125 0 0  0.06875000000000001 0.41 0  0 0.35875 0  1.58125 0.41 0  1.631724228912893 0.3381867502687533 0  0.8240147050827157 0.1225233169495944 0  1.825608881788174 0.14499488549201 0  1.85625 0 0  1.44375 0 0  1.44375 0.41 0  1.85625 0.41 0  2.13125 0.41 0  0.7562500000000001 0.41 0  0.7562500000000001 0 0  0.89375 0 0  0.34375 0 0  0.34375 0.41 0  0.20625 0.41 0  0.06875000000000001 0 0  1.16875 0 0  1.03125 0.41 0  0.61875 0 0  1.71875 0 0  1.99375 0 0  1.99375 0.41 0  0.3972301426712326 0.2593842555611471 0  1.340625 0.3489494290853124 0  1.134375 0.3489494290853123 0  1.700180620188976 0.3438659752031281 0  0.5003922072260507 0.341765274319271 0  0.6212513815748759 0.2209216137134851 0  0.6885607720119526 0.215393731583638 0  1.033412357328477 0.1612902025713047 0  2.135782184673599 0.07126652247502523 0  1.668441847249787 0.2129203728327609 0  1.295782514339747 0.2378437748815763 0  1.409375 0.3520314716057996 0  2.129248544730567 0.1906135162504124 0  2.060771381434487 0.1989445750470348 0  2.013252586573865 0.1496169464686054 0  1.942766402200229 0.1734448904596831 0  1.895522487186454 0.06076163953489683 0  2.069553871656643 0.06605731020975725 0  0.9281250000000001 0.3539050257418612 0  1.274680914880868 0.3520219391081363 0  0.3030138498135347 0.2488370856812789 0  0.8223773249563684 0.341761430177996 0  0.9018164060227267 0.2326477848736739 0  0.8143027982392851 0.2440265179987191 0  0.7225087161029304 0.2699907246386231 0  1.614713220494657 0.09473434380863296 0  0.378125 0.3566194660323104 0  0.309375 0.3566194660323104 0  1.72990325744076 0.2380068107952482 0  0.6915936999299305 0.3429472631234433 0  0.6268087624932918 0.3466455500035671 0  1.356580098625191 0.2120393231351682 0  0.3060160055995138 0.1590148921620778 0  0.3954648733249218 0.156380553890791 0  2.034370752044885 0.2668681600792073 0  1.51768709249349 0.3426260931494756 0  1.561883724969884 0.1650446847858835 0  1.197344062229598 0.2523725417393646 0  0.9281250000000001 0.05124999999999999 0  1.804085235518364 0.3468178408964637 0  1.817887819205233 0.2589243285818559 0  0.9107805776841645 0.1653834539923287 0  1.905897727272727 0.3485060975609756 0  0 0.05125 0  0.844212276491354 0.0614201194265309 0  0.378125 0.05244637078450034 0  1.008571329007178 0.2705955969954818 0  0.7724048032149464 0.1559079561351474 0  0.7203054377831548 0.04941826955193545 0  1.192836486056382 0.3562350748565544 0  0.5967108020713719 0.1479294686523888 0  1.28257088594801 0.2944411014911587 0  0.7041890234548132 0.1222025174424443 0  1.474860187679412 0.2504218616229368 0  1.406767003493824 0.2829282258560709 0  0.3201325899091991 0.05890121548989159 0  0.5979220912872258 0.2727591995766724 0  1.845656689180403 0.1998310418452388 0  2.144958525570388 0.2909790873294231 0  2.2 0.15375 0  1.57794966442982 0.3540357145964566 0  0.9483181579620558 0.1214693369582054 0  0.0496154796471391 0.333125 0  1.508991196088596 0.1421783375065625 0  0.09776612425612034 0.2204896805326566 0  1.50436820029908 0.06143401634903343 0  1.223857000523521 0.0823554862453532 0  0.2531953886959507 0.3582003209055908 0  1.153316824384777 0.1289850171317837 0  2.148922302309752 0.1258841779285271 0  1.621993280276081 0.2841214267927899 0  1.550118654119087 0.2461998729100966 0  1.327182649291491 0.1216967252533594 0  1.753125 0.04556020050186112 0  1.271875 0.04556020050186116 0  0.9824282234771738 0.05051969257615314 0  1.039510847866381 0.05683351822678641 0  1.94956388244759 0.1180512551534177 0  1.949997712993411 0.04965831614304109 0  1.771961817615021 0.1530278789497521 0  1.909246823951428 0.2812757146784527 0  1.101974016627944 0.2038045618205013 0  0.7906250000000001 0.0444674049654372 0  1.948575539857022 0.2445328248721197 0  1.697271520964565 0.1233917627620729 0  1.065625 0.3689344961371042 0  1.085849084308977 0.3170853572226867 0  0.9840604787624379 0.3582077516409966 0  1.577403511714593 0.05463601888079143 0  0.05622663515370135 0.05493816910862376 0  0.8762396958822678 0.3392249777398821 0  1.751571320346033 0.3651102912045228 0  1.055327852410105 0.111864799513911 0  0.1583785085108421 0.2994699345738728 0  0.1455283439499995 0.3542795598723423 0  2.2 0.35875 0  0.225705107073232 0.05084786997482401 0  0.1455852234589313 0.1166494778469164 0  1.466879772203159 0.3611261772912453 0  1.990280163552011 0.3564754268533217 0  1.17471064520912 0.2990917256188288 0  0.7221925551074015 0.1739659241003985 0  0 0.25625 0  2.2 0.25625 0  2.2 0.05125 0  0 0.15375 0  1.853978576207987 0.35875 0  0.21965520498276 0.1015543880164422 0  1.515638456102889 0.2882700110184686 0  0.09048297387599738 0.3637717362208066 0  2.150453692751374 0.2387066338105111 0  1.323782677156475 0.04897634338873398 0  1.409375 0.03715320121951221 0  1.406484531114799 0.1087852750766809 0  1.134375 0.03715320121951218 0  1.627401732573545 0.04552157221025036 0  0.446875 0.3713289093361426 0  2.045405893604797 0.1105340662939892 0  1.255408269734577 0.1577307500159216 0  2.028125 0.03707597992059326 0  0.04420832937638274 0.128125 0  0.5817551710628505 0.3702615006034757 0  0.1197849154434487 0.2663398672460083 0  1.248258025468107 0.2565907092181813 0  0.1300647302703173 0.0508462728378621 0  0.7738123537510222 0.2761231499240648 0  1.203125 0.0366132337404304 0  0.5444207041612499 0.111205399508622 0  0.8016457771828226 0.1964238426015905 0  2.072662025974815 0.2975086504196739 0  0.4019040438866802 0.2103993403217561 0  0.4677372330974851 0.04827477407630658 0  0.8677218578847617 0.1432970430140788 0  1.058011122005847 0.2758866204059919 0  0.4429405887974043 0.2746184809910084 0  0.5843750000000001 0.03726989681835222 0  0.6318596133730142 0.1128692182767254 0  0.4862628454464408 0.2957029785303028 0  0.7805186758662764 0.3673578380827891 0  1.887722846421017 0.1760882698830035 0  0.3498893058880703 0.256189258793856 0  1.472640588990488 0.1118278026240017 0  1.865937103925594 0.2604137786483804 0
[...]
<PointData  Vectors="f_37"> 
<DataArray  type="Float64"  Name="f_37"  NumberOfComponents="3" format="ascii">-6.0171911499683219e-07 2.1065138967119913e-08 0.0000000000000000e+00  3.5590651247616059e-07 -2.9656253767497429e-08 0.0000000000000000e+00  -3.7482191805216483e-07 -6.7462381111129183e-10 0.0000000000000000e+00  1.4047671497859642e-06 -2.6549145588740123e-09 0.0000000000000000e+00  -1.0270070467864930e-06 -2.1608239671703205e-07 0.0000000000000000e+00  -7.7886264989906936e-07 -7.1322145705125229e-07 0.0000000000000000e+00  -1.6301716249737792e-06 -6.0891362167782326e-08 0.0000000000000000e+00  1.2458899252470931e-06 4.2960918573922117e-07 0.0000000000000000e+00  3.2332368818625896e-06 -8.8401524875270372e-08 0.0000000000000000e+00  -7.2120536315377465e-07 -4.5080071166126901e-08 0.0000000000000000e+00  -1.6078035326167092e-06 7.3314718970778220e-07 0.0000000000000000e+00  4.7485993702598881e-07 2.2542158854293681e-06 0.0000000000000000e+00  -3.9988637340732047e-06 -1.2336017343555244e-06 0.0000000000000000e+00  -3.6753443806357425e-06 -7.7440273425692089e-07 0.0000000000000000e+00  -2.9955644607352712e-06 1.3681337220653984e-06 0.0000000000000000e+00  -1.6745113257343184e-06 5.2719450945029061e-06 0.0000000000000000e+00  -3.6463511745410580e-06 7.5208532667910114e-07 0.0000000000000000e+00  -5.8025427190651584e-06 -1.0444076637447237e-06 0.0000000000000000e+00  -4.8385137113701583e-06 8.3444990807311270e-07 0.0000000000000000e+00  3.9466186513007285e-06 1.8523187063236137e-07 0.0000000000000000e+00  -1.1140592481943310e-06 2.0312030720093901e-06 0.0000000000000000e+00  -5.6686573984392241e-06 1.7295417068686581e-06 0.0000000000000000e+00  2.9288670153866870e-06 2.8839343647131499e-07 0.0000000000000000e+00  2.4579833461583633e-06 1.8817318655348731e-07 0.0000000000000000e+00  8.9093758148936701e-08 1.0252874481073069e-06 0.0000000000000000e+00  1.5000025511939412e+00 -5.5710400345592601e-08 0.0000000000000000e+00  -1.3680942521769676e-06 4.4980374525681139e-07 0.0000000000000000e+00  -1.4922945834693753e-06 -2.1472509750898259e-07 0.0000000000000000e+00  -1.6992394865384343e-06 -8.5842629169544590e-08 0.0000000000000000e+00  -2.8775853610495573e-06 9.6498099120888579e-08 0.0000000000000000e+00  -8.8973525435923039e-07 -2.1669995032512767e-09 0.0000000000000000e+00  -9.4737142257476555e-07 7.2038814288011214e-08 0.0000000000000000e+00  2.0699278742660335e-07 -2.3293137315118811e-08 0.0000000000000000e+00  5.7837003468091752e-06 4.3827143589114196e-08 0.0000000000000000e+00  2.1647001141643388e-06 5.2350766443142247e-07 0.0000000000000000e+00  5.2989102654745100e-07 2.4825606155125572e-09 0.0000000000000000e+00  -7.2373768622289764e-07 -2.5818680609397549e-09 0.0000000000000000e+00  2.7395082091580409e-06 4.2055062011675313e-07 0.0000000000000000e+00  -6.5198392941918185e-06 4.4377627256527050e-07 0.0000000000000000e+00  1.0942023697109289e+00 -3.9510108540485180e-02 0.0000000000000000e+00  1.2018784382421384e+00 -8.0148817657514203e-03 0.0000000000000000e+00  6.1953412386722528e-01 -4.2946865677803939e-02 0.0000000000000000e+00  8.1172794397611536e-01 -6.0321295965293543e-02 0.0000000000000000e+00  1.2191353282936879e+00 -3.4335601000317481e-05 0.0000000000000000e+00  2.5178373420246969e-01 1.3620062730640757e-03 0.0000000000000000e+00  1.2193954435742842e+00 -9.9271261909152737e-04 0.0000000000000000e+00  -2.2278922560404629e-06 9.1167334061668363e-10 0.0000000000000000e+00  4.5115125366545545e-07 -5.6802910536094988e-08 0.0000000000000000e+00  -9.3402198777431104e-07 2.2558490322802005e-09 0.0000000000000000e+00  1.1825820700057794e+00 7.0854760208554916e-05 0.0000000000000000e+00  -2.2499549386581542e-06 1.1686436588646769e-07 0.0000000000000000e+00  -5.2991766928479221e-07 1.8404037380971338e-08 0.0000000000000000e+00  1.3118750297481332e+00 4.7280389241770082e-02 0.0000000000000000e+00  1.1875256631081251e-07 2.3408716485136842e-07 0.0000000000000000e+00  -3.2208761876094352e-07 -8.0481618528738668e-09 0.0000000000000000e+00  4.1648424475802775e-07 -3.7682469666534379e-07 0.0000000000000000e+00  1.1023048772238787e-06 -7.0108270408512543e-07 0.0000000000000000e+00  -9.7716211303649170e-07 -2.1261895502695471e-07 0.0000000000000000e+00  -1.1847624886826183e-06 -2.8433683102332079e-08 0.0000000000000000e+00  3.3321314039345894e-07 6.4629842499320655e-08 0.0000000000000000e+00  6.2465768131200484e-07 1.3720150593107036e-07 0.0000000000000000e+00  -2.3219865297758056e-06 1.4185809370724296e-07 0.0000000000000000e+00  -9.0151813635819870e-07 -4.4476157784054237e-07 0.0000000000000000e+00  1.3635745761838984e+00 -2.9909408889434216e-03 0.0000000000000000e+00  -1.0313562769883835e-06 -4.7534813799936383e-07 0.0000000000000000e+00  1.2032836583089173e+00 1.4295547440493097e-02 0.0000000000000000e+00  1.5760086098259072e+00 -1.3521219202781183e-02 0.0000000000000000e+00  1.2501766939991670e+00 -1.2921913203278478e-02 0.0000000000000000e+00  1.4750867038322075e+00 -7.3035218650116321e-03 0.0000000000000000e+00  1.9640452974369915e+00 2.7335024187274813e-02 0.0000000000000000e+00  1.2088395375135972e+00 -9.5024987534739777e-04 0.0000000000000000e+00  1.2106683443267352e+00 -1.7651810871178775e-04 0.0000000000000000e+00  1.1880431952046031e+00 -3.2260631585769852e-03 0.0000000000000000e+00  1.6687365651326125e+00 -1.2884476134465883e-01 0.0000000000000000e+00  1.5743276250036484e+00 7.9419865261799658e-02 0.0000000000000000e+00  1.8601197755079995e+00 2.7448113362738219e-03 0.0000000000000000e+00  1.1249986021377549e+00 -2.0217210588776907e-07 0.0000000000000000e+00  1.1250027997960492e+00 -1.8820537356998759e-08 0.0000000000000000e+00  1.7631627720078102e+00 -1.5274342996139800e-01 0.0000000000000000e+00  1.6174446047105933e+00 1.2337241935705463e-01 0.0000000000000000e+00  7.9878466126053294e-01 1.3820847841056511e-01 0.0000000000000000e+00  1.2179792426876768e+00 -1.3497442704599871e-04 0.0000000000000000e+00  1.4951287264740514e+00 4.4383165239872353e-02 0.0000000000000000e+00  1.1287349898383523e+00 -2.1349909393657407e-04 0.0000000000000000e+00  1.3103465119304509e+00 -4.8744300125900608e-04 0.0000000000000000e+00  1.2630897129488603e+00 2.9649921986683279e-02 0.0000000000000000e+00  1.2657623195071004e+00 8.0625534800406583e-03 0.0000000000000000e+00  1.5683717111822810e+00 -1.4011152295817572e-01 0.0000000000000000e+00  1.1727853351450079e+00 -3.7466918851671531e-04 0.0000000000000000e+00  1.1872421168002929e+00 4.2549763593648189e-03 0.0000000000000000e+00  1.4158807895146404e+00 3.5203581923210589e-02 0.0000000000000000e+00  1.1823019896978837e+00 -1.1381834634229003e-04 0.0000000000000000e+00  1.4227062790247698e+00 1.5268483895214600e-02 0.0000000000000000e+00  1.2290978913928758e+00 -1.2469672353053358e-02 0.0000000000000000e+00  1.0740302197899976e+00 -4.1116318951528855e-02 0.0000000000000000e+00  1.1450068290055713e+00 -3.5310055866795031e-02 0.0000000000000000e+00  -3.5231369055865264e-01 -3.3885142254595872e-02 0.0000000000000000e+00  1.7813435316303174e+00 1.3556132154884859e-01 0.0000000000000000e+00  3.7583295956626722e-01 -2.6572782696665576e-02 0.0000000000000000e+00  1.2192449168524648e+00 -4.0997146727932889e-03 0.0000000000000000e+00  1.1820612143253930e+00 2.5581547534704796e-01 0.0000000000000000e+00  1.2226608579615952e+00 -9.5020189565510720e-03 0.0000000000000000e+00  9.1240063191996734e-01 2.3349628262690304e-02 0.0000000000000000e+00  1.3817947167879523e+00 2.1809143606553019e-01 0.0000000000000000e+00  1.1163544452219243e+00 1.9565870201886841e-04 0.0000000000000000e+00  1.0268819120764226e-06 -5.2612480778408643e-08 0.0000000000000000e+00  1.8347086159450527e+00 -6.2922537036970649e-02 0.0000000000000000e+00  1.1433609221493657e+00 -2.5619825063507284e-01 0.0000000000000000e+00  1.5892420549035522e+00 -2.8900610317720250e-02 0.0000000000000000e+00  -1.0808328460479919e-06 3.9569440455999863e-10 0.0000000000000000e+00  1.0408454056952081e+00 1.2235143590856468e-04 0.0000000000000000e+00  -3.6029819091951005e-06 -9.0459635102137539e-08 0.0000000000000000e+00  -6.8189268740947838e-06 2.8175459301541719e-07 0.0000000000000000e+00  1.1551137327732026e+00 -2.7459587008583995e-02 0.0000000000000000e+00  8.1632353180397492e-07 -5.1008385143313789e-08 0.0000000000000000e+00  1.8368512800820804e+00 7.7856602859342317e-02 0.0000000000000000e+00  1.0795290062053675e+00 1.9324062852814461e-04 0.0000000000000000e+00  1.7930684378045527e+00 -1.0623911905578111e-01 0.0000000000000000e+00  -2.8218179840317924e-06 3.3195734087203527e-08 0.0000000000000000e+00  1.7975599022904165e+00 -1.4323929102274657e-01 0.0000000000000000e+00  1.0723174798719136e-06 1.6891975316920289e-07 0.0000000000000000e+00  1.1001216015574526e+00 1.1243372871288987e-05 0.0000000000000000e+00  1.5860655867210538e+00 1.3543521507466363e-01 0.0000000000000000e+00  7.6491640895913891e-07 -1.6407300152147363e-07 0.0000000000000000e+00  1.7301576174153082e+00 8.2605756231895852e-02 0.0000000000000000e+00  1.3592605808239664e+00 -3.0254567786862047e-01 0.0000000000000000e+00  1.3398832433073118e+00 -1.2239413174963933e-01 0.0000000000000000e+00  1.3730230462511157e+00 1.2497151072819207e-01 0.0000000000000000e+00  -1.6699510375363331e-06 -8.6089766487865616e-08 0.0000000000000000e+00  1.1671851043236292e+00 1.1452933706063028e-02 0.0000000000000000e+00  1.0724117984379202e+00 -2.1126702364172453e-02 0.0000000000000000e+00  5.1565444503553962e-06 -7.5553043652256034e-07 0.0000000000000000e+00  1.1860215081037369e+00 8.0944820907338372e-03 0.0000000000000000e+00  8.0374610258169887e-01 -2.1204923257014500e-02 0.0000000000000000e+00  1.1187204874495342e+00 -3.9854093582163498e-02 0.0000000000000000e+00  1.1269077961618279e+00 5.8646187218200779e-02 0.0000000000000000e+00  1.0883274285763318e+00 2.2375347662192393e-03 0.0000000000000000e+00  1.9218938849750409e+00 1.8571702496392498e-01 0.0000000000000000e+00  1.4235802468667271e+00 -1.5292974533543001e-02 0.0000000000000000e+00  2.5207736828479949e-06 4.9106940661895393e-08 0.0000000000000000e+00  6.9443068129590042e-06 -4.2524204970961369e-07 0.0000000000000000e+00  -7.7304922703565162e-07 -5.5268759724049497e-08 0.0000000000000000e+00  6.5625205242594475e-01 5.4866985980087195e-09 0.0000000000000000e+00  -3.9873417960024144e-06 -3.0109742703781939e-07 0.0000000000000000e+00  1.0824948878501832e+00 5.2573519921097376e-03 0.0000000000000000e+00  1.5930075315721031e+00 9.2363807401502712e-02 0.0000000000000000e+00  1.2110900583446749e+00 1.2129687105823504e-03 0.0000000000000000e+00  -4.0429533191674311e-07 8.0675474187330430e-09 0.0000000000000000e+00  -5.0041065798610305e-06 5.0332775990938084e-07 0.0000000000000000e+00  2.7391038691478751e-06 1.3928326030049757e-07 0.0000000000000000e+00  -1.5041594929298964e-06 1.0259873846303394e-08 0.0000000000000000e+00  -1.0509941194959400e-06 4.5903135482962675e-10 0.0000000000000000e+00  -4.9399357405932580e-07 1.3308371273712962e-07 0.0000000000000000e+00  -2.9637112780745047e-06 1.4434457412678119e-07 0.0000000000000000e+00  -5.0539420495858795e-06 2.7453526225385333e-09 0.0000000000000000e+00  -2.6095177597288235e-07 -1.3701976284996032e-09 0.0000000000000000e+00  7.2201939233020994e-07 2.7537536677613658e-08 0.0000000000000000e+00  1.1280160518720458e-06 -7.5182654030015573e-08 0.0000000000000000e+00  -8.3281848419674216e-07 1.4607470663152223e-07 0.0000000000000000e+00  -5.0872814608561416e-06 6.4094753101214923e-07 0.0000000000000000e+00  -3.7887558627348953e-06 2.5032337482627217e-08 0.0000000000000000e+00  -9.2636805831864458e-07 -2.3423499477660881e-07 0.0000000000000000e+00  -2.8738853458143525e-06 -1.8124262675043537e-09 0.0000000000000000e+00  -1.3725772533830162e-06 -2.5629168566797559e-09 0.0000000000000000e+00  -3.9448943025212971e-06 2.3515992089389866e-09 0.0000000000000000e+00  7.2978175770432241e-01 -5.4815410303303440e-02 0.0000000000000000e+00  9.4563646465567197e-01 9.0472839430208504e-03 0.0000000000000000e+00  9.2637436470947232e-01 1.2543586482012526e-02 0.0000000000000000e+00  1.0409448685012657e+00 -2.6562847654739343e-03 0.0000000000000000e+00  1.6533657911575501e+00 -6.5907027583484754e-02 0.0000000000000000e+00  -1.6040313846806049e-02 -7.8991905882339532e-03 0.0000000000000000e+00  2.2765251383595243e-02 1.7952574739827538e-02 0.0000000000000000e+00  1.2571441381654680e+00 5.5457901372100611e-02 0.0000000000000000e+00  1.0638486838453980e+00 -7.9610621991082817e-05 0.0000000000000000e+00  1.1612747612428440e+00 -1.2176534509957081e-02 0.0000000000000000e+00  1.0749202660839015e+00 1.2872288701434786e-03 0.0000000000000000e+00  8.9346369494556377e-01 1.4218375609850923e-02 0.0000000000000000e+00  1.2191324070858824e+00 -1.6261142759752432e-04 0.0000000000000000e+00  1.2191993622553379e+00 -3.9574886282060220e-04 0.0000000000000000e+00  1.2167665610319383e+00 -5.7092613340662941e-04 0.0000000000000000e+00  1.2180735700784955e+00 -1.6182115341701270e-03 0.0000000000000000e+00  9.8475892280531030e-01 -2.8837431941702423e-04 0.0000000000000000e+00  1.0281771950404222e+00 -9.8039899993806640e-05 0.0000000000000000e+00  8.5923374027495747e-01 -1.0850342658815834e-02 0.0000000000000000e+00  8.9804667542943717e-01 1.5120244485286038e-02 0.0000000000000000e+00  2.4313287749831800e-01 5.7936726067851267e-02 0.0000000000000000e+00  1.2125895055735783e+00 -8.3483092204666237e-02 0.0000000000000000e+00  1.0358258982470911e+00 -1.0660629660172019e-01 0.0000000000000000e+00  1.1877684116980700e+00 -1.4543931008118513e-01 0.0000000000000000e+00  1.5655322431829120e+00 -1.6210342745129866e-01 0.0000000000000000e+00  1.1941740046914895e+00 5.1166176819619127e-03 0.0000000000000000e+00  1.5336445631211617e+00 -2.7841520406401820e-02 0.0000000000000000e+00  1.4857459809237104e+00 3.1659218441118693e-02 0.0000000000000000e+00  1.2115195538696315e+00 -1.4738115670140091e-02 0.0000000000000000e+00  1.4458572810241286e+00 -1.1282505515489057e-01 0.0000000000000000e+00  1.4933124230012045e+00 -9.9989856489529655e-02 0.0000000000000000e+00  9.1087034708872050e-01 6.1109416876787455e-02 0.0000000000000000e+00  7.3489381608354498e-02 -5.4619980599014045e-02 0.0000000000000000e+00  2.9753374849295505e-01 1.4741575935593151e-02 0.0000000000000000e+00  1.2164136377066188e+00 -3.1780895528547794e-04 0.0000000000000000e+00  1.0013441515436687e+00 3.1937992597477517e-02 0.0000000000000000e+00  1.1220636218728768e+00 -1.3748009182468950e-02 0.0000000000000000e+00  1.3486728761481102e+00 -3.5181291275813403e-02 0.0000000000000000e+00  7.8021900597884708e-01 2.8276855289547560e-02 0.0000000000000000e+00  1.0103861656847817e+00 -1.8891177899961417e-03 0.0000000000000000e+00  1.2247914119437262e+00 -1.2186947587803164e-02 0.0000000000000000e+00  9.8810755738042066e-01 2.3956098187289339e-02 0.0000000000000000e+00  9.9265723499093028e-01 -2.0959920711579016e-04 0.0000000000000000e+00  6.5624907726745196e-01 7.9499351755902663e-08 0.0000000000000000e+00  1.0865841456165828e+00 4.7330205183700409e-02 0.0000000000000000e+00  1.5743325877902516e+00 3.4984472668071233e-02 0.0000000000000000e+00  1.5502830713829778e+00 4.2514751174194320e-03 0.0000000000000000e+00  9.9653016643880243e-01 1.2316689394044228e-01 0.0000000000000000e+00  1.0526286440313704e+00 6.6827911004523524e-02 0.0000000000000000e+00  8.1325711211600960e-01 1.6361555121303516e-02 0.0000000000000000e+00  8.4852066960005057e-01 9.4828112864997344e-02 0.0000000000000000e+00  1.4738327742101518e+00 1.6407935752270401e-02 0.0000000000000000e+00  1.6427160172080790e+00 1.8107104398469684e-01 0.0000000000000000e+00  1.3592249554616085e+00 -4.9811990449362284e-02 0.0000000000000000e+00  1.4729945941341718e+00 -3.4410194610098144e-02 0.0000000000000000e+00  1.6103338605898612e+00 -2.0017206012552729e-02 0.0000000000000000e+00  1.4636535619861606e+00 -1.2789467021068077e-01 0.0000000000000000e+00  1.2137416068794160e+00 -6.4654447067347739e-03 0.0000000000000000e+00  1.2045625002843292e+00 3.1394129139734311e-05 0.0000000000000000e+00  1.2177401425882808e+00 -1.1278007577500552e-04 0.0000000000000000e+00  9.3371621139266259e-01 1.6639268065827929e-02 0.0000000000000000e+00  1.6179574378886732e+00 8.2691151638412105e-02 0.0000000000000000e+00  9.4154417961702175e-01 9.3730733986725601e-02 0.0000000000000000e+00  1.1993820993257274e+00 -9.6470748334640238e-03 0.0000000000000000e+00  1.2234186095318440e+00 1.6126394858241233e-01 0.0000000000000000e+00  9.7623428527269485e-01 -2.5468010220347091e-02 0.0000000000000000e+00  1.2526858818518625e+00 -1.7209881088675689e-03 0.0000000000000000e+00  1.3621678704565234e+00 9.6906757935150023e-02 0.0000000000000000e+00  1.4701940662327360e+00 -4.5328496305226444e-02 0.0000000000000000e+00  1.2093576225260874e+00 -1.2549236752894800e-04 0.0000000000000000e+00  1.2671731578771288e+00 8.2008960063487280e-03 0.0000000000000000e+00  1.2895045175658064e+00 -2.6135378186180464e-02 0.0000000000000000e+00  1.4407636756602207e+00 4.7936533849465147e-02 0.0000000000000000e+00  8.2647324505930064e-01 7.0125614272022402e-04 0.0000000000000000e+00  7.0931335001719720e-01 1.5941831303943287e-03 0.0000000000000000e+00  7.2148806567016388e-01 1.6550783988446734e-02 0.0000000000000000e+00  8.2115899135419623e-01 -8.7189943792376334e-03 0.0000000000000000e+00  1.2024881972923605e+00 -7.7688372098369779e-04 0.0000000000000000e+00  8.7439068228179528e-01 -1.4947831868458662e-04 0.0000000000000000e+00  1.2061990463775156e+00 6.3303932542196463e-03 0.0000000000000000e+00  1.2138930630965687e+00 -2.3372577394303773e-03 0.0000000000000000e+00  7.6855086619999990e-01 4.1092038203969838e-02 0.0000000000000000e+00  8.1680910778218541e-01 3.4275928111852379e-02 0.0000000000000000e+00  1.2196104578741824e+00 -1.8267463517184423e-03 0.0000000000000000e+00  1.2190031922681179e+00 9.7393040812121402e-03 0.0000000000000000e+00  5.7875685121818632e-01 7.9731225805459369e-03 0.0000000000000000e+00  1.3959574316397054e+00 4.8864946437300215e-03 0.0000000000000000e+00  7.6377455673114203e-01 4.1106392768606864e-03 0.0000000000000000e+00  9.3106993506179969e-01 -4.6438343333423272e-03 0.0000000000000000e+00  7.3877337143136823e-01 -7.9133922821462241e-02 0.0000000000000000e+00  1.1687322993201639e+00 -5.2735038853856241e-02 0.0000000000000000e+00  8.2212854767747445e-01 -1.5621456663526307e-03 0.0000000000000000e+00  1.5275363182474939e+00 1.5929045633477205e-03 0.0000000000000000e+00  1.5288505220749546e+00 4.7667518982312090e-01 0.0000000000000000e+00  1.0050010487159107e+00 1.8245419313498368e-01 0.0000000000000000e+00  8.9273261509459689e-01 1.8725139774365495e-04 0.0000000000000000e+00  1.3191331054806870e+00 -1.2635593252131630e-01 0.0000000000000000e+00  1.4482838573879655e+00 -5.4585218375363864e-01 0.0000000000000000e+00  7.9434751725075414e-01 2.0837345113735750e-02 0.0000000000000000e+00  9.1714778409213282e-01 5.0854129298428089e-05 0.0000000000000000e+00  1.5062815496751056e+00 -2.4694999564056543e-03 0.0000000000000000e+00  4.0079159260871783e-01 1.2432565716443615e-01 0.0000000000000000e+00  1.4062540792518285e+00 6.1906216480355443e-08 0.0000000000000000e+00  1.2177993050538443e+00 -7.0219771386184913e-06 0.0000000000000000e+00  8.9293817443825685e-01 -2.1377301240080144e-04 0.0000000000000000e+00  1.4062506408860802e+00 -2.0663012395379040e-08 0.0000000000000000e+00  8.9369270850120119e-01 -5.3381232961140321e-04 0.0000000000000000e+00  1.8363408995536752e+00 -3.3069848999960788e-01 0.0000000000000000e+00  1.3458277017774660e+00 5.3161304767395095e-03 0.0000000000000000e+00  7.1456752889402486e-01 9.8697941957947913e-02 0.0000000000000000e+00  1.2188807829364423e+00 -7.2255525501699656e-05 0.0000000000000000e+00  7.5494980538647860e-01 -5.9790083218634726e-03 0.0000000000000000e+00  6.2314929114407758e-01 -1.9610498452474125e-02 0.0000000000000000e+00  1.3152818028914555e+00 -2.2414950699984157e-02 0.0000000000000000e+00  5.3341543259781699e-01 -2.2717783719351559e-02 0.0000000000000000e+00  8.2933928987643268e-01 7.4092679721200229e-04 0.0000000000000000e+00  1.3058254729751375e+0