<?xml version="1.0"?>
<VTKFile type="UnstructuredGrid"  version="0.1"  >
<UnstructuredGrid>
<Piece  NumberOfPoints="2426" NumberOfCells="4534">
<Points>
<DataArray  type="Float64"  NumberOfComponents="3"  format="ascii">0 0.41 0  0 0 0  2.2 0 0  2.2 0.41 0  0.2404508497187474 0.2293892626146237 0  0.25 0.2 0  0.2404508497187474 0.1706107373853764 0  0.2154508497187474 0.1524471741852423 0  0.1845491502812526 0.1524471741852423 0  0.1595491502812526 0.1706107373853764 0  0.15 0.2 0  0.1595491502812526 0.2293892626146237 0  0.1845491502812527 0.2475528258147577 0  0.2154508497187474 0.2475528258147577 0  0.5404508497187474 0.2293892626146237 0  0.55 0.2 0  0.5404508497187474 0.1706107373853764 0  0.5154508497187473 0.1524471741852423 0  0.4845491502812526 0.1524471741852423 0  0.4595491502812526 0.1706107373853764 0  0.45 0.2 0  0.4595491502812526 0.2293892626146237 0  0.4845491502812526 0.2475528258147577 0  0.5154508497187473 0.2475528258147577 0  1.1 0 0  0 0.205 0  1.1 0.41 0  0.55 0 0  0.55 0.41 0  0.275 0 0  0.275 0.41 0  1.65 0.41 0  1.65 0 0  1.375 0 0  1.375 0.41 0  1.925 0 0  1.925 0.41 0  0.8250000000000001 0.41 0  0.8250000000000001 0 0  1.5125 0.205 0  1.7875 0.205 0  0.9625000000000001 0.205 0  1.2375 0.205 0  2.2 0.205 0  0.7560964076246335 0.2151713709677419 0  1.99375 0.2152743902439024 0  2.0625 0 0  0.6875 0 0  2.0625 0.41 0  2.2 0.3075 0  0.6875 0.41 0  1.7875 0.41 0  1.375 0.1486128048780488 0  1.5125 0 0  1.7875 0 0  1.5125 0.41 0  0.9625000000000001 0 0  0.9625000000000001 0.41 0  0.4125 0 0  0.1375 0 0  0.1375 0.41 0  0.4125 0.41 0  1.2375 0 0  1.1 0.1486128048780487 0  1.2375 0.41 0  1.65 0.1486128048780487 0  1.126715909090909 0.2793064024390244 0  1.676715909090909 0.2793064024390244 0  1.348284090909091 0.2793064024390244 0  0.34375 0.3032389320646208 0  1.894702181800738 0.1282910975492754 0  2.092797818199262 0.1282910975492754 0  1.85625 0.3075 0  0.8630851210521902 0.286932093388664 0  0.89375 0.1025 0  0.35 0.1090282786671641 0  0 0.3075 0  0 0.1025 0  0.6526217841291382 0.288229645480046 0  0.7562500000000001 0.09660248895515888 0  0.6568633732316684 0.1557582854763441 0  2.099172119769978 0.25625 0  1.002356446954348 0.1010393851523063 0  1.99375 0.08395950269330846 0  1.459960956013612 0.3075 0  1.569025960719943 0.2986889805672169 0  1.03125 0.3278689922742084 0  0.75625 0.3247156761655783 0  1.959375 0.3126371951219512 0  1.749222215368287 0.1025 0  1.275777784631713 0.1025 0  2.2 0.1025 0  1.225938124459196 0.3075 0  1.550777784631713 0.1025 0  1.44375 0.07430640243902442 0  1.16875 0.07430640243902437 0  0.3528655045338512 0.2063263890916129 0  0.5890337614812103 0.08775733857679162 0  0.8504912436891263 0.190072835691683 0  1.899250267340833 0.2229966846119207 0  0.1020898364287272 0.3140258291809757 0  1.766482954545455 0.2934032012195123 0  1.051658316544432 0.2265720188842194 0  0.2 0.3400647632937836 0  1.421109702350723 0.2261157654379721 0  0.4812500000000001 0.41 0  0.4324401666997539 0.3216425986889796 0  0.098916018031319 0.09171660955420841 0  0.9508742791313441 0.2921736960864468 0  2.13125 0 0  2.118919042110979 0.3422084711244843 0  1.30625 0.41 0  0.20625 0 0  1.597888256393107 0.2173787389261347 0  0.4812500000000001 0 0  0.4324082967851086 0.08384041677422771 0  1.829299675393195 0.07400700849299596 0  0.568219932524165 0.3212274660843853 0  1.71875 0.41 0  0.268005226542646 0.08512186835670006 0  1.16875 0.41 0  2.038220665644273 0.332420740103091 0  0.6678017527842831 0.07701763866051195 0  0.89375 0.41 0  0.5111435174287687 0.07335351331957608 0  0.176193934632343 0.0734896648625108 0  0.07390688010811153 0.1697064032433452 0  0.05452951551825875 0.25625 0  0.61875 0.41 0  1.452769549894695 0.1548122580621249 0  1.369219062229598 0.07430640243902442 0  1.30625 0 0  1.720943423819132 0.1714577452753128 0  1.157188124459196 0.205 0  1.094219062229598 0.07430640243902437 0  1.304056576180868 0.1714577452753128 0  1.67579304192913 0.07430640243902437 0  0.2672907219039591 0.3037570723459566 0  1.209670467133757 0.1362100266964769 0  1.58125 0 0  1.03125 0 0  0.06875000000000001 0.41 0  0 0.35875 0  1.58125 0.41 0  1.631724228912893 0.3381867502687533 0  0.8240147050827157 0.1225233169495944 0  1.825608881788174 0.14499488549201 0  1.85625 0 0  1.44375 0 0  1.44375 0.41 0  1.85625 0.41 0  2.13125 0.41 0  0.7562500000000001 0.41 0  0.7562500000000001 0 0  0.89375 0 0  0.34375 0 0  0.34375 0.41 0  0.20625 0.41 0  0.06875000000000001 0 0  1.16875 0 0  1.03125 0.41 0  0.61875 0 0  1.71875 0 0  1.99375 0 0  1.99375 0.41 0  0.3972301426712326 0.2593842555611471 0  1.340625 0.3489494290853124 0  1.134375 0.3489494290853123 0  1.700180620188976 0.3438659752031281 0  0.5003922072260507 0.341765274319271 0  0.6212513815748759 0.2209216137134851 0  0.6885607720119526 0.215393731583638 0  1.033412357328477 0.1612902025713047 0  2.135782184673599 0.07126652247502523 0  1.668441847249787 0.2129203728327609 0  1.295782514339747 0.2378437748815763 0  1.409375 0.3520314716057996 0  2.129248544730567 0.1906135162504124 0  2.060771381434487 0.1989445750470348 0  2.013252586573865 0.1496169464686054 0  1.942766402200229 0.1734448904596831 0  1.895522487186454 0.06076163953489683 0  2.069553871656643 0.06605731020975725 0  0.9281250000000001 0.3539050257418612 0  1.274680914880868 0.3520219391081363 0  0.3030138498135347 0.2488370856812789 0  0.8223773249563684 0.341761430177996 0  0.9018164060227267 0.2326477848736739 0  0.8143027982392851 0.2440265179987191 0  0.7225087161029304 0.2699907246386231 0  1.614713220494657 0.09473434380863296 0  0.378125 0.3566194660323104 0  0.309375 0.3566194660323104 0  1.72990325744076 0.2380068107952482 0  0.6915936999299305 0.3429472631234433 0  0.6268087624932918 0.3466455500035671 0  1.356580098625191 0.2120393231351682 0  0.3060160055995138 0.1590148921620778 0  0.3954648733249218 0.156380553890791 0  2.034370752044885 0.2668681600792073 0  1.51768709249349 0.3426260931494756 0  1.561883724969884 0.1650446847858835 0  1.197344062229598 0.2523725417393646 0  0.9281250000000001 0.05124999999999999 0  1.804085235518364 0.3468178408964637 0  1.817887819205233 0.2589243285818559 0  0.9107805776841645 0.1653834539923287 0  1.905897727272727 0.3485060975609756 0  0 0.05125 0  0.844212276491354 0.0614201194265309 0  0.378125 0.05244637078450034 0  1.008571329007178 0.2705955969954818 0  0.7724048032149464 0.1559079561351474 0  0.7203054377831548 0.04941826955193545 0  1.192836486056382 0.3562350748565544 0  0.5967108020713719 0.1479294686523888 0  1.28257088594801 0.2944411014911587 0  0.7041890234548132 0.1222025174424443 0  1.474860187679412 0.2504218616229368 0  1.406767003493824 0.2829282258560709 0  0.3201325899091991 0.05890121548989159 0  0.5979220912872258 0.2727591995766724 0  1.845656689180403 0.1998310418452388 0  2.144958525570388 0.2909790873294231 0  2.2 0.15375 0  1.57794966442982 0.3540357145964566 0  0.9483181579620558 0.1214693369582054 0  0.0496154796471391 0.333125 0  1.508991196088596 0.1421783375065625 0  0.09776612425612034 0.2204896805326566 0  1.50436820029908 0.06143401634903343 0  1.223857000523521 0.0823554862453532 0  0.2531953886959507 0.3582003209055908 0  1.153316824384777 0.1289850171317837 0  2.148922302309752 0.1258841779285271 0  1.621993280276081 0.2841214267927899 0  1.550118654119087 0.2461998729100966 0  1.327182649291491 0.1216967252533594 0  1.753125 0.04556020050186112 0  1.271875 0.04556020050186116 0  0.9824282234771738 0.05051969257615314 0  1.039510847866381 0.05683351822678641 0  1.94956388244759 0.1180512551534177 0  1.949997712993411 0.04965831614304109 0  1.771961817615021 0.1530278789497521 0  1.909246823951428 0.2812757146784527 0  1.101974016627944 0.2038045618205013 0  0.7906250000000001 0.0444674049654372 0  1.948575539857022 0.2445328248721197 0  1.697271520964565 0.1233917627620729 0  1.065625 0.3689344961371042 0  1.085849084308977 0.3170853572226867 0  0.9840604787624379 0.3582077516409966 0  1.577403511714593 0.05463601888079143 0  0.05622663515370135 0.05493816910862376 0  0.8762396958822678 0.3392249777398821 0  1.751571320346033 0.3651102912045228 0  1.055327852410105 0.111864799513911 0  0.1583785085108421 0.2994699345738728 0  0.1455283439499995 0.3542795598723423 0  2.2 0.35875 0  0.225705107073232 0.05084786997482401 0  0.1455852234589313 0.1166494778469164 0  1.466879772203159 0.3611261772912453 0  1.990280163552011 0.3564754268533217 0  1.17471064520912 0.2990917256188288 0  0.7221925551074015 0.1739659241003985 0  0 0.25625 0  2.2 0.25625 0  2.2 0.05125 0  0 0.15375 0  1.853978576207987 0.35875 0  0.21965520498276 0.1015543880164422 0  1.515638456102889 0.2882700110184686 0  0.09048297387599738 0.3637717362208066 0  2.150453692751374 0.2387066338105111 0  1.323782677156475 0.04897634338873398 0  1.409375 0.03715320121951221 0  1.406484531114799 0.1087852750766809 0  1.134375 0.03715320121951218 0  1.627401732573545 0.04552157221025036 0  0.446875 0.3713289093361426 0  2.045405893604797 0.1105340662939892 0  1.255408269734577 0.1577307500159216 0  2.028125 0.03707597992059326 0  0.04420832937638274 0.128125 0  0.5817551710628505 0.3702615006034757 0  0.1197849154434487 0.2663398672460083 0  1.248258025468107 0.2565907092181813 0  0.1300647302703173 0.0508462728378621 0  0.7738123537510222 0.2761231499240648 0  1.203125 0.0366132337404304 0  0.5444207041612499 0.111205399508622 0  0.8016457771828226 0.1964238426015905 0  2.072662025974815 0.2975086504196739 0  0.4019040438866802 0.2103993403217561 0  0.4677372330974851 0.04827477407630658 0  0.8677218578847617 0.1432970430140788 0  1.058011122005847 0.2758866204059919 0  0.4429405887974043 0.2746184809910084 0  0.5843750000000001 0.03726989681835222 0  0.6318596133730142 0.1128692182767254 0  0.4862628454464408 0.2957029785303028 0  0.7805186758662764 0.3673578380827891 0  1.887722846421017 0.1760882698830035 0  0.3498893058880703 0.256189258793856 0  1.472640588990488 0.1118278026240017 0  1.865937103925594 0.2604137786483804 0
[...]
<PointData  Vectors="f_37"> 
<DataArray  type="Float64"  Name="f_37"  NumberOfComponents="3" format="ascii">-6.1339034584613715e-07 2.0176660868628390e-08 0.0000000000000000e+00  3.7364296307296618e-07 -3.0226616343039959e-08 0.0000000000000000e+00  3.0681732277952963e-07 2.7284970856378718e-08 0.0000000000000000e+00  3.9836670224822875e-06 1.1188869213111255e-07 0.0000000000000000e+00  -9.9409445783077589e-07 5.8895281452891695e-08 0.0000000000000000e+00  -7.6750260145659679e-07 -3.2669147937221750e-08 0.0000000000000000e+00  -1.6468428595165162e-06 2.4688081031533276e-07 0.0000000000000000e+00  1.1690665560100100e-06 3.0265011911852557e-07 0.0000000000000000e+00  2.9367399031831698e-06 -4.2554107898145848e-07 0.0000000000000000e+00  -9.2519745679777473e-07 5.4546762291674183e-08 0.0000000000000000e+00  -1.7381979049285147e-06 1.0704487599686486e-06 0.0000000000000000e+00  6.0182771182381423e-07 2.2121914978848967e-06 0.0000000000000000e+00  -3.8261306843972267e-06 -1.2697185004585291e-06 0.0000000000000000e+00  -3.5434979986543713e-06 -8.2469870195411842e-07 0.0000000000000000e+00  -2.2118720282335580e-06 5.2812838558261692e-07 0.0000000000000000e+00  -1.4224959655476830e-06 1.6330059085466684e-06 0.0000000000000000e+00  -3.5143025850114908e-06 8.0707165705500914e-08 0.0000000000000000e+00  -2.6606818628551660e-06 4.0765413240688433e-09 0.0000000000000000e+00  -2.1142647834001689e-06 -2.6348064389414776e-07 0.0000000000000000e+00  -2.0952802937137206e-06 4.9815313754705824e-07 0.0000000000000000e+00  -9.5704409815114878e-07 7.5426105920446317e-07 0.0000000000000000e+00  -5.1975148734124329e-07 5.1726907632726384e-07 0.0000000000000000e+00  -3.8236097565191418e-07 3.0293370264161571e-07 0.0000000000000000e+00  -7.2799579329790566e-07 1.6779145722966794e-07 0.0000000000000000e+00  1.8492194057717084e-06 -3.7006120561352497e-07 0.0000000000000000e+00  1.5000025201870042e+00 4.8195779608575659e-09 0.0000000000000000e+00  -3.3129208445068907e-06 -3.7333314470142866e-07 0.0000000000000000e+00  -2.5143439010500458e-06 -9.2080064997504732e-08 0.0000000000000000e+00  -7.4186068526036866e-07 4.9540020154886670e-08 0.0000000000000000e+00  -2.6837833376078398e-06 9.1692317256209345e-08 0.0000000000000000e+00  -1.0416230880051273e-06 -2.2727569538958132e-08 0.0000000000000000e+00  2.4306811390433445e-06 3.2645656302233838e-07 0.0000000000000000e+00  -8.7153295379278497e-07 2.0044522566122820e-08 0.0000000000000000e+00  9.7202960281008006e-07 -2.0600061765169342e-07 0.0000000000000000e+00  2.7230710173833252e-06 -2.3342394990527659e-07 0.0000000000000000e+00  2.2234188563064222e-06 -6.2537592261251844e-08 0.0000000000000000e+00  -1.1337463416587444e-06 -2.5928552131373959e-08 0.0000000000000000e+00  -1.2613993340663928e-06 8.9931256731068461e-08 0.0000000000000000e+00  -1.5691257717491061e-06 4.2359336749424884e-08 0.0000000000000000e+00  1.0511114904055630e+00 2.8270012785856398e-02 0.0000000000000000e+00  1.1892432387327629e+00 -8.7157880340806071e-02 0.0000000000000000e+00  6.3331369960634587e-01 -4.1738748301850752e-02 0.0000000000000000e+00  9.1310655542057539e-01 3.0662583864775547e-02 0.0000000000000000e+00  1.3070123200678514e+00 -7.6971203651902964e-02 0.0000000000000000e+00  1.9903507552228766e-01 -2.4507341306142218e-02 0.0000000000000000e+00  1.2136245261182013e+00 8.6007410585259125e-02 0.0000000000000000e+00  -1.4413556236780329e-06 -6.4408385793993647e-08 0.0000000000000000e+00  -1.0350996850728432e-06 -1.2861234305229265e-07 0.0000000000000000e+00  -8.5356751345398167e-07 3.4494726393541401e-07 0.0000000000000000e+00  1.2185051958115005e+00 2.5189712732220662e-02 0.0000000000000000e+00  -8.6714275948587242e-07 -3.4141871690195768e-08 0.0000000000000000e+00  -8.8705014794321020e-07 -3.8117502117469427e-07 0.0000000000000000e+00  1.3364985323003693e+00 -5.3537376411312747e-03 0.0000000000000000e+00  3.4871898035031636e-06 -5.1552103876991206e-08 0.0000000000000000e+00  -1.7214608785528568e-06 3.9248939464114624e-08 0.0000000000000000e+00  -2.1221175272073208e-06 -1.2109281672067475e-07 0.0000000000000000e+00  -3.7892514810639950e-06 1.7862829177345694e-07 0.0000000000000000e+00  2.2396711488919179e-06 1.3966034205352739e-07 0.0000000000000000e+00  -9.4635807595813531e-07 -3.2091584849171328e-08 0.0000000000000000e+00  3.0109513728222376e-07 6.5199391732836219e-08 0.0000000000000000e+00  5.9596100526638063e-07 1.3349071451690435e-07 0.0000000000000000e+00  -2.5561626895659280e-06 1.1303598540926039e-07 0.0000000000000000e+00  -6.5895867689682872e-07 3.3716346422013534e-07 0.0000000000000000e+00  1.4287666987386767e+00 4.5090897336364656e-02 0.0000000000000000e+00  7.3612642529172245e-07 4.4205971663068036e-07 0.0000000000000000e+00  1.2449766765562833e+00 2.5265735631465350e-02 0.0000000000000000e+00  1.5632918287211277e+00 -2.5509695967327706e-03 0.0000000000000000e+00  1.5000169916541044e+00 -3.5700797529948355e-02 0.0000000000000000e+00  1.5154223841068086e+00 -1.3764877377076096e-02 0.0000000000000000e+00  1.9614691750336055e+00 2.9798746250334240e-02 0.0000000000000000e+00  1.4218125054716380e+00 3.6983831396058368e-02 0.0000000000000000e+00  1.2301827289881981e+00 1.7903719107808146e-02 0.0000000000000000e+00  1.2675414527808329e+00 7.7420899139621618e-03 0.0000000000000000e+00  1.6816821018187953e+00 -1.1663256803516919e-01 0.0000000000000000e+00  1.5434787756190771e+00 6.0834043326580857e-02 0.0000000000000000e+00  1.8639140806284957e+00 9.8159071706106424e-03 0.0000000000000000e+00  1.1249986011187176e+00 -1.7683548446253676e-07 0.0000000000000000e+00  1.1250027053845069e+00 1.0572054364737477e-08 0.0000000000000000e+00  1.7626898727222513e+00 -1.6373118732224515e-01 0.0000000000000000e+00  1.6416462376313654e+00 1.4621984414487127e-01 0.0000000000000000e+00  7.5148856939004971e-01 9.8235495314064947e-02 0.0000000000000000e+00  1.4476951881821321e+00 -1.9467814341946360e-02 0.0000000000000000e+00  1.4929242537329168e+00 3.8546852097248473e-02 0.0000000000000000e+00  1.0903313073805057e+00 -9.1497057377516403e-03 0.0000000000000000e+00  1.3521058172073284e+00 1.7708243890039891e-02 0.0000000000000000e+00  1.4337633537451389e+00 -9.1703031047165422e-03 0.0000000000000000e+00  1.2306183255235412e+00 -8.7125548000441116e-03 0.0000000000000000e+00  1.5535341360889343e+00 -1.1732145249556754e-01 0.0000000000000000e+00  1.2512993773678218e+00 6.6078097233216275e-03 0.0000000000000000e+00  1.2895054507782258e+00 -3.5968252199766551e-03 0.0000000000000000e+00  1.3829139533698547e+00 -1.1719299225763615e-02 0.0000000000000000e+00  1.1982980822830707e+00 -2.8605456328179825e-02 0.0000000000000000e+00  1.4290166098319337e+00 -1.9418913937792048e-02 0.0000000000000000e+00  1.2988179110044842e+00 -6.1009011219905233e-03 0.0000000000000000e+00  1.0417008767227653e+00 2.9847711093498211e-03 0.0000000000000000e+00  1.0721137497585946e+00 -6.8139097368028409e-03 0.0000000000000000e+00  -3.3044491469970388e-01 -1.3115888775830198e-02 0.0000000000000000e+00  1.7821879861554328e+00 1.2345288985957545e-01 0.0000000000000000e+00  4.1284032688148231e-01 5.5421869776320812e-02 0.0000000000000000e+00  1.1587132904790891e+00 -4.0561468582474072e-02 0.0000000000000000e+00  1.1818613695182321e+00 2.5548088543843683e-01 0.0000000000000000e+00  1.3571995501211258e+00 8.8367575837407439e-03 0.0000000000000000e+00  9.8756132812925135e-01 -4.5599364346458490e-02 0.0000000000000000e+00  1.3810921980681710e+00 2.1766361490423872e-01 0.0000000000000000e+00  1.1186207751590747e+00 -4.3777587188723828e-02 0.0000000000000000e+00  1.0644718529448471e-06 -1.6593539472525990e-08 0.0000000000000000e+00  1.8389581066828213e+00 -6.2322954864526811e-02 0.0000000000000000e+00  1.1435618691056249e+00 -2.5635907463902868e-01 0.0000000000000000e+00  1.6163795576692845e+00 -7.4353946662746639e-02 0.0000000000000000e+00  9.1786445564734202e-08 -1.0148482111003244e-07 0.0000000000000000e+00  9.4319823655493906e-01 3.3932986179723021e-03 0.0000000000000000e+00  1.1428417930070352e-06 2.4532174217461160e-07 0.0000000000000000e+00  -6.9355258719924230e-06 2.7284324276309125e-07 0.0000000000000000e+00  1.1063977135336516e+00 7.3507106751265261e-02 0.0000000000000000e+00  7.1616551160214297e-07 -3.4857999590681367e-08 0.0000000000000000e+00  1.8261394249182976e+00 7.7181534646672711e-02 0.0000000000000000e+00  1.0202229424018654e+00 5.4226044727526575e-03 0.0000000000000000e+00  1.7899171166800545e+00 -1.1387494435780940e-01 0.0000000000000000e+00  4.2509754676835000e-07 5.0454387695218012e-08 0.0000000000000000e+00  1.7977767095761457e+00 -1.4120254128406112e-01 0.0000000000000000e+00  -3.0674892742917479e-06 -3.3013953086291550e-08 0.0000000000000000e+00  1.0743312364250133e+00 -3.8264393243809466e-03 0.0000000000000000e+00  1.6045384437609826e+00 1.3311848482618044e-01 0.0000000000000000e+00  -1.0003846642305548e-06 3.5393746577554032e-07 0.0000000000000000e+00  1.7235131508572847e+00 7.4467940834126056e-02 0.0000000000000000e+00  1.3596137990059225e+00 -3.0226605912696758e-01 0.0000000000000000e+00  1.3399800248269655e+00 -1.2281008426201434e-01 0.0000000000000000e+00  1.3729754124862541e+00 1.2468281081261930e-01 0.0000000000000000e+00  1.9752902748638047e-08 -9.6560005739150521e-09 0.0000000000000000e+00  1.3594469105299625e+00 1.9063885352824824e-02 0.0000000000000000e+00  1.0666106826059039e+00 3.7652058734845197e-03 0.0000000000000000e+00  -1.8684189192777212e-06 1.1304108444406912e-07 0.0000000000000000e+00  1.1065079867869698e+00 -1.6988899132060156e-02 0.0000000000000000e+00  8.4480532354611948e-01 3.0882058785661793e-02 0.0000000000000000e+00  1.1004310056031674e+00 1.2236249783564801e-02 0.0000000000000000e+00  1.0648321824105029e+00 -1.5448847197880331e-03 0.0000000000000000e+00  1.0392666276894176e+00 -3.1471282275224752e-03 0.0000000000000000e+00  1.9203981282970379e+00 1.8472645925621994e-01 0.0000000000000000e+00  1.4603446961334166e+00 1.0361881407308897e-02 0.0000000000000000e+00  2.3711182207664298e-06 1.4948218931073320e-07 0.0000000000000000e+00  -7.7343148454177365e-07 -1.5324732190356011e-07 0.0000000000000000e+00  -8.0565478968881902e-07 -5.7274088021467589e-08 0.0000000000000000e+00  6.5625203765522422e-01 1.3968970207324689e-08 0.0000000000000000e+00  -1.5798693099350255e-06 9.8921447221283555e-08 0.0000000000000000e+00  9.9681981083104365e-01 -4.1208248137958254e-03 0.0000000000000000e+00  1.6132428883985559e+00 1.2468817789298016e-01 0.0000000000000000e+00  1.3403548628563970e+00 -2.6503180077382161e-02 0.0000000000000000e+00  -1.6920765175959704e-07 -3.6282207271509731e-07 0.0000000000000000e+00  -1.5333063282709174e-06 -3.2780738098353066e-07 0.0000000000000000e+00  -1.9873137908668983e-06 -2.2091662722519196e-07 0.0000000000000000e+00  -2.4982837704105125e-06 -6.7647251094310972e-08 0.0000000000000000e+00  2.4171480688997578e-06 4.4935317702290252e-07 0.0000000000000000e+00  -1.6763237139921071e-06 -5.3630039876018329e-08 0.0000000000000000e+00  -9.7782993943759973e-07 -2.6174655613835709e-07 0.0000000000000000e+00  -1.9668069446668302e-06 2.3422425557454080e-07 0.0000000000000000e+00  8.4690708409139757e-08 2.1753013482233291e-09 0.0000000000000000e+00  4.5843075413821893e-07 2.1509562410899704e-08 0.0000000000000000e+00  1.1793792475913492e-06 -8.5151223431205237e-08 0.0000000000000000e+00  -8.2069299474912137e-07 1.4367944802555513e-07 0.0000000000000000e+00  2.5092572705933712e-06 -4.9721882230248743e-08 0.0000000000000000e+00  -1.0693132300728160e-06 -3.3486208550842900e-07 0.0000000000000000e+00  -2.8621502823009882e-06 -2.5948323142429676e-07 0.0000000000000000e+00  -3.5189259456305769e-06 1.5595020216728213e-07 0.0000000000000000e+00  -7.0392818808091316e-07 2.5612632764778064e-07 0.0000000000000000e+00  -4.3085180631400487e-06 -1.9891742417302587e-07 0.0000000000000000e+00  7.2734896563961626e-01 -4.3586432531116631e-02 0.0000000000000000e+00  8.4615295370488719e-01 8.4923256258072812e-03 0.0000000000000000e+00  8.8051744641225982e-01 2.1206230177963680e-03 0.0000000000000000e+00  9.1334115915124803e-01 6.6431324503106372e-03 0.0000000000000000e+00  1.6543837656773674e+00 -7.0274583200500493e-02 0.0000000000000000e+00  3.5145171460626819e-03 -2.3877303445985036e-02 0.0000000000000000e+00  2.5258906225899408e-02 -4.4091604261472191e-02 0.0000000000000000e+00  1.1952027842917927e+00 2.4119437316885452e-02 0.0000000000000000e+00  9.8578716209062711e-01 -1.0351109838580005e-02 0.0000000000000000e+00  1.1785764249512409e+00 1.9804877675024615e-02 0.0000000000000000e+00  1.2957654193788419e+00 -3.3499541379130471e-02 0.0000000000000000e+00  8.1345072231666393e-01 1.2366950085023086e-02 0.0000000000000000e+00  1.2105901722492591e+00 1.6294220978363402e-02 0.0000000000000000e+00  1.2030583481937418e+00 1.1785660802462246e-01 0.0000000000000000e+00  1.3369372281200922e+00 2.7119778814918675e-02 0.0000000000000000e+00  1.3627972161085946e+00 5.3446859406125570e-02 0.0000000000000000e+00  8.5055048591121296e-01 5.4455048119397083e-04 0.0000000000000000e+00  9.2469362755374251e-01 -7.9546082124552359e-03 0.0000000000000000e+00  8.7031341098613213e-01 -2.6073922350254158e-02 0.0000000000000000e+00  8.0204588106150532e-01 -1.2078457879626321e-04 0.0000000000000000e+00  2.3214303619895127e-01 5.2177382178452102e-02 0.0000000000000000e+00  1.2352966914447090e+00 -7.4787857028915855e-02 0.0000000000000000e+00  1.0032864804781112e+00 -7.2520068412360306e-02 0.0000000000000000e+00  1.0827348274234643e+00 -9.1036109748737395e-02 0.0000000000000000e+00  1.5365855712230827e+00 -1.5626743013853550e-01 0.0000000000000000e+00  1.2291822791325342e+00 -1.0125253872301605e-02 0.0000000000000000e+00  1.5337916233500566e+00 -2.6681136485026895e-02 0.0000000000000000e+00  1.4844253831095500e+00 3.2070720688855400e-02 0.0000000000000000e+00  1.3973472553676878e+00 -5.2388508102784226e-02 0.0000000000000000e+00  1.4288260207771177e+00 -1.0418530787618187e-01 0.0000000000000000e+00  1.4795301591752832e+00 -1.0074253850124369e-01 0.0000000000000000e+00  1.0395840467848523e+00 -5.0127655447329868e-02 0.0000000000000000e+00  7.9345533895026812e-02 -5.3777854000779418e-02 0.0000000000000000e+00  2.8317393817143921e-01 2.3933093745554121e-02 0.0000000000000000e+00  1.3550247324124456e+00 4.6101800418185422e-02 0.0000000000000000e+00  9.6230591417413713e-01 2.0903798255771603e-03 0.0000000000000000e+00  1.2775183186415489e+00 4.9365757590439902e-02 0.0000000000000000e+00  1.3926208399540667e+00 -8.4303355021348066e-03 0.0000000000000000e+00  7.9528415029912702e-01 1.3311780430534194e-02 0.0000000000000000e+00  8.9886022358267426e-01 8.9342400446263907e-03 0.0000000000000000e+00  1.3618410032251025e+00 -1.6837348178412766e-02 0.0000000000000000e+00  9.7707590424892565e-01 5.1659612550664508e-02 0.0000000000000000e+00  8.8588043538060346e-01 1.4980489733987458e-03 0.0000000000000000e+00  6.5624905355096397e-01 8.4433885113435135e-08 0.0000000000000000e+00  1.0741585379997358e+00 4.6546533050693360e-02 0.0000000000000000e+00  1.5677995373536442e+00 3.6911635390730446e-02 0.0000000000000000e+00  1.5817449095088560e+00 -4.9939369197442740e-02 0.0000000000000000e+00  1.0720436869057610e+00 1.4357043841137732e-01 0.0000000000000000e+00  1.0657893842091410e+00 7.3680373201741159e-02 0.0000000000000000e+00  7.4991597878815575e-01 -1.1865412843126621e-03 0.0000000000000000e+00  8.0242877791395362e-01 8.2605566850471546e-02 0.0000000000000000e+00  1.5034116884341597e+00 -2.3508953403632765e-02 0.0000000000000000e+00  1.6665642358487931e+00 1.7840654891939026e-01 0.0000000000000000e+00  1.2794827092614893e+00 1.4787533893026814e-03 0.0000000000000000e+00  1.4695619783527276e+00 1.0205869627193557e-02 0.0000000000000000e+00  1.6075493661569686e+00 -1.7235002177991371e-02 0.0000000000000000e+00  1.4996963773590566e+00 -1.4035745469463942e-01 0.0000000000000000e+00  1.1547055013642431e+00 -9.5416482036326480e-02 0.0000000000000000e+00  1.3657505850970775e+00 -2.2866987089419474e-02 0.0000000000000000e+00  1.1760371618203356e+00 -7.3598896943185471e-02 0.0000000000000000e+00  7.9273189453895077e-01 -1.6498301856549280e-03 0.0000000000000000e+00  1.5760698834172693e+00 4.5512466653619722e-02 0.0000000000000000e+00  9.4149893048797073e-01 9.3616501199392882e-02 0.0000000000000000e+00  1.4316926061417881e+00 3.2870732033375490e-02 0.0000000000000000e+00  1.2233611760538139e+00 1.6058813553929438e-01 0.0000000000000000e+00  8.5994296243337887e-01 -6.2230411193214480e-03 0.0000000000000000e+00  1.1789678902710372e+00 -1.3861675950325194e-02 0.0000000000000000e+00  1.3610481851181706e+00 9.6678471891357268e-02 0.0000000000000000e+00  1.5220738033077059e+00 2.7132268557135013e-02 0.0000000000000000e+00  1.1823988592154104e+00 -1.5122813031171203e-02 0.0000000000000000e+00  1.4995929441171649e+00 -2.4344063278289436e-02 0.0000000000000000e+00  1.2461330505384987e+00 3.3007911579269078e-02 0.0000000000000000e+00  1.4532036616500055e+00 -3.2603001505168852e-03 0.0000000000000000e+00  6.6297408799706870e-01 -1.4225543108142733e-03 0.0000000000000000e+00  6.3300739155871932e-01 -7.8791974782832629e-03 0.0000000000000000e+00  7.4650303419857356e-01 9.4215086073694415e-03 0.0000000000000000e+00  8.3159575010508591e-01 1.0771849200131028e-02 0.0000000000000000e+00  1.3291725385486577e+00 1.0957652586773767e-02 0.0000000000000000e+00  7.1671503964319838e-01 -3.0659054678592577e-03 0.0000000000000000e+00  1.2059240822318906e+00 -5.0963774254041617e-02 0.0000000000000000e+00  1.3056633571710470e+00 3.1228418614296317e-05 0.0000000000000000e+00  7.9347826432037993e-01 -3.7475334686375181e-03 0.0000000000000000e+00  8.1263294069086311e-01 4.1666004749538098e-02 0.0000000000000000e+00  1.1863433098039788e+00 2.3134510681377909e-02 0.0000000000000000e+00  1.3033520357808672e+00 -4.2517328146374940e-03 0.0000000000000000e+00  5.4746108791087500e-01 4.9585139728191259e-03 0.0000000000000000e+00  1.3523590298817927e+00 -4.8280672329508806e-04 0.0000000000000000e+00  7.4910641307655934e-01 -7.8290441906990905e-03 0.0000000000000000e+00  7.7877269359675627e-01 -7.7427925588496142e-03 0.0000000000000000e+00  7.3881024542688045e-01 -7.9175904857277837e-02 0.0000000000000000e+00  1.1985332189641824e+00 -6.1504961327767185e-02 0.0000000000000000e+00  6.4945354492200003e-01 6.6050812008498147e-03 0.0000000000000000e+00  1.5428823447476223e+00 4.1650392768807033e-02 0.0000000000000000e+00  1.5283871236703475e+00 4.7611590160791312e-01 0.0000000000000000e+00  1.0046260113658625e+00 1.8219347198334895e-01 0.0000000000000000e+00  7.7285113449380571e-01 1.1814806908815334e-02 0.0000000000000000e+00  1.3189056039959384e+00 -1.2559610128534038e-01 0.0000000000000000e+00  1.4489069669329682e+00 -5.4607192342750566e-01 0.0000000000000000e+00  6.9136347390729591e-01 7.0646514669237695e-03 0.0000000000000000e+00  7.8315806599585813e-01 1.4238903259823131e-03 0.0000000000000000e+00  1.5072170972813594e+00 -1.1813411944807986e-02 0.0000000000000000e+00  4.1519187582333605e-01 8.0646676877739368e-02 0.0000000000000000e+00  1.4062539918699135e+00 1.1449805664348274e-07 0.0000000000000000e+00  1.4041435784396665e+00 -2.5571368071545073e-02 0.0000000000000000e+00  7.7489280285732609e-01 -5.5860519519008566e-03 0.0000000000000000e+00  1.4062505908070224e+00 2.7911147088679236e-08 0.0000000000000000e+00  7.5156604245770819e-01 3.0512461768695247e-03 0.0000000000000000e+00  1.8372503146932448e+00 -3.2973063798832353e-01 0.0000000000000000e+00  1.4470222461988711e+00 1.0489347723179242e-02 0.0000000000000000e+00  7.1442640053654216e-01 9.8571146761635420e-02 0.0000000000000000e+00  1.4326265908836116e+00 -6.6762322138717065e-02 0.0000000000000000e+00  6.8988747616246238e-01 -3.3941024482607857e-03 0.0000000000000000e+00  5.1404104738524870e-01 -1.5485186415860170e-04 0.0000000000000000e+00  1.4222012150333230e+00 1.7190308124551495e-02 0.0000000000000000e+00  4.7705687262111601e-01 -3.0040870078045742e-03 0.0000000000000000e+00  6.5873766870293271e-01 -4.3786151696837382e-03 0.0000000000000000e+00  1.3062760459121006e+00 -4.4