<?xml version="1.0"?>
<VTKFile type="UnstructuredGrid"  version="0.1"  >
<UnstructuredGrid>
<Piece  NumberOfPoints="2426" NumberOfCells="4534">
<Points>
<DataArray  type="Float64"  NumberOfComponents="3"  format="ascii">0 0.41 0  0 0 0  2.2 0 0  2.2 0.41 0  0.2404508497187474 0.2293892626146237 0  0.25 0.2 0  0.2404508497187474 0.1706107373853764 0  0.2154508497187474 0.1524471741852423 0  0.1845491502812526 0.1524471741852423 0  0.1595491502812526 0.1706107373853764 0  0.15 0.2 0  0.1595491502812526 0.2293892626146237 0  0.1845491502812527 0.2475528258147577 0  0.2154508497187474 0.2475528258147577 0  0.5404508497187474 0.2293892626146237 0  0.55 0.2 0  0.5404508497187474 0.1706107373853764 0  0.5154508497187473 0.1524471741852423 0  0.4845491502812526 0.1524471741852423 0  0.4595491502812526 0.1706107373853764 0  0.45 0.2 0  0.4595491502812526 0.2293892626146237 0  0.4845491502812526 0.2475528258147577 0  0.5154508497187473 0.2475528258147577 0  1.1 0 0  0 0.205 0  1.1 0.41 0  0.55 0 0  0.55 0.41 0  0.275 0 0  0.275 0.41 0  1.65 0.41 0  1.65 0 0  1.375 0 0  1.375 0.41 0  1.925 0 0  1.925 0.41 0  0.8250000000000001 0.41 0  0.8250000000000001 0 0  1.5125 0.205 0  1.7875 0.205 0  0.9625000000000001 0.205 0  1.2375 0.205 0  2.2 0.205 0  0.7560964076246335 0.2151713709677419 0  1.99375 0.2152743902439024 0  2.0625 0 0  0.6875 0 0  2.0625 0.41 0  2.2 0.3075 0  0.6875 0.41 0  1.7875 0.41 0  1.375 0.1486128048780488 0  1.5125 0 0  1.7875 0 0  1.5125 0.41 0  0.9625000000000001 0 0  0.9625000000000001 0.41 0  0.4125 0 0  0.1375 0 0  0.1375 0.41 0  0.4125 0.41 0  1.2375 0 0  1.1 0.1486128048780487 0  1.2375 0.41 0  1.65 0.1486128048780487 0  1.126715909090909 0.2793064024390244 0  1.676715909090909 0.2793064024390244 0  1.348284090909091 0.2793064024390244 0  0.34375 0.3032389320646208 0  1.894702181800738 0.1282910975492754 0  2.092797818199262 0.1282910975492754 0  1.85625 0.3075 0  0.8630851210521902 0.286932093388664 0  0.89375 0.1025 0  0.35 0.1090282786671641 0  0 0.3075 0  0 0.1025 0  0.6526217841291382 0.288229645480046 0  0.7562500000000001 0.09660248895515888 0  0.6568633732316684 0.1557582854763441 0  2.099172119769978 0.25625 0  1.002356446954348 0.1010393851523063 0  1.99375 0.08395950269330846 0  1.459960956013612 0.3075 0  1.569025960719943 0.2986889805672169 0  1.03125 0.3278689922742084 0  0.75625 0.3247156761655783 0  1.959375 0.3126371951219512 0  1.749222215368287 0.1025 0  1.275777784631713 0.1025 0  2.2 0.1025 0  1.225938124459196 0.3075 0  1.550777784631713 0.1025 0  1.44375 0.07430640243902442 0  1.16875 0.07430640243902437 0  0.3528655045338512 0.2063263890916129 0  0.5890337614812103 0.08775733857679162 0  0.8504912436891263 0.190072835691683 0  1.899250267340833 0.2229966846119207 0  0.1020898364287272 0.3140258291809757 0  1.766482954545455 0.2934032012195123 0  1.051658316544432 0.2265720188842194 0  0.2 0.3400647632937836 0  1.421109702350723 0.2261157654379721 0  0.4812500000000001 0.41 0  0.4324401666997539 0.3216425986889796 0  0.098916018031319 0.09171660955420841 0  0.9508742791313441 0.2921736960864468 0  2.13125 0 0  2.118919042110979 0.3422084711244843 0  1.30625 0.41 0  0.20625 0 0  1.597888256393107 0.2173787389261347 0  0.4812500000000001 0 0  0.4324082967851086 0.08384041677422771 0  1.829299675393195 0.07400700849299596 0  0.568219932524165 0.3212274660843853 0  1.71875 0.41 0  0.268005226542646 0.08512186835670006 0  1.16875 0.41 0  2.038220665644273 0.332420740103091 0  0.6678017527842831 0.07701763866051195 0  0.89375 0.41 0  0.5111435174287687 0.07335351331957608 0  0.176193934632343 0.0734896648625108 0  0.07390688010811153 0.1697064032433452 0  0.05452951551825875 0.25625 0  0.61875 0.41 0  1.452769549894695 0.1548122580621249 0  1.369219062229598 0.07430640243902442 0  1.30625 0 0  1.720943423819132 0.1714577452753128 0  1.157188124459196 0.205 0  1.094219062229598 0.07430640243902437 0  1.304056576180868 0.1714577452753128 0  1.67579304192913 0.07430640243902437 0  0.2672907219039591 0.3037570723459566 0  1.209670467133757 0.1362100266964769 0  1.58125 0 0  1.03125 0 0  0.06875000000000001 0.41 0  0 0.35875 0  1.58125 0.41 0  1.631724228912893 0.3381867502687533 0  0.8240147050827157 0.1225233169495944 0  1.825608881788174 0.14499488549201 0  1.85625 0 0  1.44375 0 0  1.44375 0.41 0  1.85625 0.41 0  2.13125 0.41 0  0.7562500000000001 0.41 0  0.7562500000000001 0 0  0.89375 0 0  0.34375 0 0  0.34375 0.41 0  0.20625 0.41 0  0.06875000000000001 0 0  1.16875 0 0  1.03125 0.41 0  0.61875 0 0  1.71875 0 0  1.99375 0 0  1.99375 0.41 0  0.3972301426712326 0.2593842555611471 0  1.340625 0.3489494290853124 0  1.134375 0.3489494290853123 0  1.700180620188976 0.3438659752031281 0  0.5003922072260507 0.341765274319271 0  0.6212513815748759 0.2209216137134851 0  0.6885607720119526 0.215393731583638 0  1.033412357328477 0.1612902025713047 0  2.135782184673599 0.07126652247502523 0  1.668441847249787 0.2129203728327609 0  1.295782514339747 0.2378437748815763 0  1.409375 0.3520314716057996 0  2.129248544730567 0.1906135162504124 0  2.060771381434487 0.1989445750470348 0  2.013252586573865 0.1496169464686054 0  1.942766402200229 0.1734448904596831 0  1.895522487186454 0.06076163953489683 0  2.069553871656643 0.06605731020975725 0  0.9281250000000001 0.3539050257418612 0  1.274680914880868 0.3520219391081363 0  0.3030138498135347 0.2488370856812789 0  0.8223773249563684 0.341761430177996 0  0.9018164060227267 0.2326477848736739 0  0.8143027982392851 0.2440265179987191 0  0.7225087161029304 0.2699907246386231 0  1.614713220494657 0.09473434380863296 0  0.378125 0.3566194660323104 0  0.309375 0.3566194660323104 0  1.72990325744076 0.2380068107952482 0  0.6915936999299305 0.3429472631234433 0  0.6268087624932918 0.3466455500035671 0  1.356580098625191 0.2120393231351682 0  0.3060160055995138 0.1590148921620778 0  0.3954648733249218 0.156380553890791 0  2.034370752044885 0.2668681600792073 0  1.51768709249349 0.3426260931494756 0  1.561883724969884 0.1650446847858835 0  1.197344062229598 0.2523725417393646 0  0.9281250000000001 0.05124999999999999 0  1.804085235518364 0.3468178408964637 0  1.817887819205233 0.2589243285818559 0  0.9107805776841645 0.1653834539923287 0  1.905897727272727 0.3485060975609756 0  0 0.05125 0  0.844212276491354 0.0614201194265309 0  0.378125 0.05244637078450034 0  1.008571329007178 0.2705955969954818 0  0.7724048032149464 0.1559079561351474 0  0.7203054377831548 0.04941826955193545 0  1.192836486056382 0.3562350748565544 0  0.5967108020713719 0.1479294686523888 0  1.28257088594801 0.2944411014911587 0  0.7041890234548132 0.1222025174424443 0  1.474860187679412 0.2504218616229368 0  1.406767003493824 0.2829282258560709 0  0.3201325899091991 0.05890121548989159 0  0.5979220912872258 0.2727591995766724 0  1.845656689180403 0.1998310418452388 0  2.144958525570388 0.2909790873294231 0  2.2 0.15375 0  1.57794966442982 0.3540357145964566 0  0.9483181579620558 0.1214693369582054 0  0.0496154796471391 0.333125 0  1.508991196088596 0.1421783375065625 0  0.09776612425612034 0.2204896805326566 0  1.50436820029908 0.06143401634903343 0  1.223857000523521 0.0823554862453532 0  0.2531953886959507 0.3582003209055908 0  1.153316824384777 0.1289850171317837 0  2.148922302309752 0.1258841779285271 0  1.621993280276081 0.2841214267927899 0  1.550118654119087 0.2461998729100966 0  1.327182649291491 0.1216967252533594 0  1.753125 0.04556020050186112 0  1.271875 0.04556020050186116 0  0.9824282234771738 0.05051969257615314 0  1.039510847866381 0.05683351822678641 0  1.94956388244759 0.1180512551534177 0  1.949997712993411 0.04965831614304109 0  1.771961817615021 0.1530278789497521 0  1.909246823951428 0.2812757146784527 0  1.101974016627944 0.2038045618205013 0  0.7906250000000001 0.0444674049654372 0  1.948575539857022 0.2445328248721197 0  1.697271520964565 0.1233917627620729 0  1.065625 0.3689344961371042 0  1.085849084308977 0.3170853572226867 0  0.9840604787624379 0.3582077516409966 0  1.577403511714593 0.05463601888079143 0  0.05622663515370135 0.05493816910862376 0  0.8762396958822678 0.3392249777398821 0  1.751571320346033 0.3651102912045228 0  1.055327852410105 0.111864799513911 0  0.1583785085108421 0.2994699345738728 0  0.1455283439499995 0.3542795598723423 0  2.2 0.35875 0  0.225705107073232 0.05084786997482401 0  0.1455852234589313 0.1166494778469164 0  1.466879772203159 0.3611261772912453 0  1.990280163552011 0.3564754268533217 0  1.17471064520912 0.2990917256188288 0  0.7221925551074015 0.1739659241003985 0  0 0.25625 0  2.2 0.25625 0  2.2 0.05125 0  0 0.15375 0  1.853978576207987 0.35875 0  0.21965520498276 0.1015543880164422 0  1.515638456102889 0.2882700110184686 0  0.09048297387599738 0.3637717362208066 0  2.150453692751374 0.2387066338105111 0  1.323782677156475 0.04897634338873398 0  1.409375 0.03715320121951221 0  1.406484531114799 0.1087852750766809 0  1.134375 0.03715320121951218 0  1.627401732573545 0.04552157221025036 0  0.446875 0.3713289093361426 0  2.045405893604797 0.1105340662939892 0  1.255408269734577 0.1577307500159216 0  2.028125 0.03707597992059326 0  0.04420832937638274 0.128125 0  0.5817551710628505 0.3702615006034757 0  0.1197849154434487 0.2663398672460083 0  1.248258025468107 0.2565907092181813 0  0.1300647302703173 0.0508462728378621 0  0.7738123537510222 0.2761231499240648 0  1.203125 0.0366132337404304 0  0.5444207041612499 0.111205399508622 0  0.8016457771828226 0.1964238426015905 0  2.072662025974815 0.2975086504196739 0  0.4019040438866802 0.2103993403217561 0  0.4677372330974851 0.04827477407630658 0  0.8677218578847617 0.1432970430140788 0  1.058011122005847 0.2758866204059919 0  0.4429405887974043 0.2746184809910084 0  0.5843750000000001 0.03726989681835222 0  0.6318596133730142 0.1128692182767254 0  0.4862628454464408 0.2957029785303028 0  0.7805186758662764 0.3673578380827891 0  1.887722846421017 0.1760882698830035 0  0.3498893058880703 0.256189258793856 0  1.472640588990488 0.1118278026240017 0  1.865937103925594 0.2604137786483804 0
[...]
<PointData  Vectors="f_37"> 
<DataArray  type="Float64"  Name="f_37"  NumberOfComponents="3" format="ascii">-6.1184736877430172e-07 2.0491115668014746e-08 0.0000000000000000e+00  3.7298669847229741e-07 -2.9660787635389336e-08 0.0000000000000000e+00  -2.6563672897950369e-07 -1.0766065710377042e-08 0.0000000000000000e+00  9.5349609533352534e-07 -7.6405722500803843e-09 0.0000000000000000e+00  -9.8945316902525626e-07 1.2057985762256927e-07 0.0000000000000000e+00  -7.7699793681999276e-07 1.5053441525095880e-07 0.0000000000000000e+00  -1.6616835260690038e-06 3.1623432376168054e-07 0.0000000000000000e+00  1.1884114012601752e-06 2.7517774275263581e-07 0.0000000000000000e+00  2.8739992173632543e-06 -4.9444292091782513e-07 0.0000000000000000e+00  -9.7429406013222966e-07 8.3653292426039906e-08 0.0000000000000000e+00  -1.7397098298311287e-06 1.1156650019788547e-06 0.0000000000000000e+00  6.9912266143493167e-07 2.2254126194122569e-06 0.0000000000000000e+00  -3.7359127943315453e-06 -1.3011031459674107e-06 0.0000000000000000e+00  -3.5565332799381274e-06 -8.5885192634000902e-07 0.0000000000000000e+00  -1.8936202631520758e-06 5.1860745069654370e-08 0.0000000000000000e+00  -1.4437795396882169e-06 3.8532260313230049e-07 0.0000000000000000e+00  -3.9363328876255096e-06 -2.1013116325996921e-07 0.0000000000000000e+00  -3.1333162116779560e-06 -1.2679444976786981e-07 0.0000000000000000e+00  -1.9645603832400523e-06 -7.0440397557233858e-08 0.0000000000000000e+00  -1.4295425956265580e-06 -3.0285755406381776e-07 0.0000000000000000e+00  -1.0766301090527996e-06 -1.2576324707080550e-07 0.0000000000000000e+00  -1.1286018750925420e-06 -6.4320391102054684e-08 0.0000000000000000e+00  -5.1571320214698925e-07 1.9814031945298363e-07 0.0000000000000000e+00  -2.4109995941783168e-07 1.0751990315437813e-07 0.0000000000000000e+00  -1.0799995627470087e-06 1.5197534950494509e-07 0.0000000000000000e+00  1.5000025239944967e+00 1.9444523708028504e-08 0.0000000000000000e+00  -8.5184227160799534e-07 1.3004572000646547e-07 0.0000000000000000e+00  -2.2023930181902107e-06 -7.9760575486849328e-08 0.0000000000000000e+00  -9.9701343074796965e-07 5.3069102608188089e-08 0.0000000000000000e+00  -2.6428978286057513e-06 9.2357174603437528e-08 0.0000000000000000e+00  -1.0660348272388098e-06 -2.5505617819007331e-08 0.0000000000000000e+00  1.1592646263934861e-08 -8.5543749940955697e-08 0.0000000000000000e+00  1.8120825923714980e-08 -5.3041209132051903e-08 0.0000000000000000e+00  2.2654549399278974e-06 1.0502641955240916e-08 0.0000000000000000e+00  4.8669253315053623e-07 3.3392559234383891e-09 0.0000000000000000e+00  3.2500015019422653e-07 2.6665803904896979e-09 0.0000000000000000e+00  -9.1429922861657395e-08 4.7676648768079416e-08 0.0000000000000000e+00  -8.5038074391113520e-08 4.6305795265224719e-08 0.0000000000000000e+00  -2.8466606245754578e-06 -6.7435882492554759e-08 0.0000000000000000e+00  1.0386233077472993e+00 9.2980124652583419e-03 0.0000000000000000e+00  1.1151444933088619e+00 1.0702233807183409e-02 0.0000000000000000e+00  6.0736518634232883e-01 -1.7451042796192285e-03 0.0000000000000000e+00  9.0629594648536071e-01 -2.1221549663522001e-02 0.0000000000000000e+00  1.2060082397167002e+00 5.2963732988479803e-03 0.0000000000000000e+00  2.2495385573565344e-01 -4.5569643431123220e-02 0.0000000000000000e+00  1.2114718634799648e+00 -1.0859572364224938e-02 0.0000000000000000e+00  -1.7638053117313980e-06 2.2914932296782590e-09 0.0000000000000000e+00  -1.5058419939477886e-06 -4.6039800154741296e-08 0.0000000000000000e+00  -7.3521363231798175e-07 -5.3465857782645289e-08 0.0000000000000000e+00  1.2723268965184134e+00 1.4189679601290576e-04 0.0000000000000000e+00  -3.6166130002030261e-07 6.1614089937338455e-08 0.0000000000000000e+00  -1.2646592630753123e-06 1.9223336437945588e-08 0.0000000000000000e+00  1.3685818758725423e+00 1.8414909148289228e-02 0.0000000000000000e+00  1.2889889695151586e-06 5.5040090973917263e-08 0.0000000000000000e+00  -2.0238272090384679e-07 3.3816124693506978e-08 0.0000000000000000e+00  1.2755807787287334e-06 1.1173630142050236e-07 0.0000000000000000e+00  -5.6153732610796083e-07 -7.0345061935919720e-08 0.0000000000000000e+00  -7.8531156330117489e-07 -4.6073771127341778e-08 0.0000000000000000e+00  -7.1969787115092568e-07 -2.3336855657419139e-08 0.0000000000000000e+00  2.9940078062585477e-07 6.5159995086581237e-08 0.0000000000000000e+00  6.0680623606534692e-07 1.3423407077516649e-07 0.0000000000000000e+00  -2.7472954770841345e-06 1.0997957605731526e-07 0.0000000000000000e+00  6.3990636871981688e-07 -9.0238413009534077e-08 0.0000000000000000e+00  1.3726541969520110e+00 2.2130664661592574e-02 0.0000000000000000e+00  -3.0368977007015730e-07 -1.2048778402451840e-07 0.0000000000000000e+00  1.3178127262254085e+00 5.5889867333161491e-04 0.0000000000000000e+00  1.5855605802456527e+00 -2.7260381976000652e-02 0.0000000000000000e+00  1.4315850729034012e+00 1.2551388061829293e-03 0.0000000000000000e+00  1.5070666725684507e+00 -1.4619927038002356e-05 0.0000000000000000e+00  1.9607220020655578e+00 2.9761197133968940e-02 0.0000000000000000e+00  1.3384962722290006e+00 6.7519029922549351e-03 0.0000000000000000e+00  1.3365962795527744e+00 3.6061739660269705e-03 0.0000000000000000e+00  1.3171203530408557e+00 -4.0734458570366016e-03 0.0000000000000000e+00  1.6608493526759722e+00 -1.0364636549154944e-01 0.0000000000000000e+00  1.5590171889064548e+00 7.8818365261279860e-02 0.0000000000000000e+00  1.8647225639716729e+00 9.6509489057334148e-03 0.0000000000000000e+00  1.1249986002633219e+00 -1.7105752647524967e-07 0.0000000000000000e+00  1.1250027125884785e+00 1.7520437060964096e-08 0.0000000000000000e+00  1.7710776049849433e+00 -1.6450335042129804e-01 0.0000000000000000e+00  1.6454781753769419e+00 1.3695393330040961e-01 0.0000000000000000e+00  7.3914536625230254e-01 1.0675256544174519e-01 0.0000000000000000e+00  1.3562690149885219e+00 -1.0091565174371125e-02 0.0000000000000000e+00  1.4769083621126968e+00 3.2490718764669968e-02 0.0000000000000000e+00  1.1177535284352185e+00 3.7426528279808013e-04 0.0000000000000000e+00  1.3732636848776962e+00 -5.1323347098040303e-03 0.0000000000000000e+00  1.4060405014391109e+00 -1.2819915721905880e-03 0.0000000000000000e+00  1.2476462208273871e+00 -2.0511749038925477e-02 0.0000000000000000e+00  1.5494129977538167e+00 -1.2231099327921958e-01 0.0000000000000000e+00  1.2543118774775597e+00 -8.5315683242881922e-04 0.0000000000000000e+00  1.2965824821939875e+00 3.7965469943542353e-03 0.0000000000000000e+00  1.4007667176032603e+00 6.7560802554829701e-03 0.0000000000000000e+00  1.2356814920873416e+00 4.1825420599242609e-03 0.0000000000000000e+00  1.4087812700564117e+00 3.2297455260408951e-04 0.0000000000000000e+00  1.3291477186643850e+00 5.3125219956732431e-05 0.0000000000000000e+00  1.0538419087542954e+00 -7.0291076237230798e-03 0.0000000000000000e+00  1.0940456150343831e+00 -1.5545008049784176e-03 0.0000000000000000e+00  -3.3033743329719684e-01 -1.5261373618183562e-02 0.0000000000000000e+00  1.7791535704296686e+00 1.2350113542909938e-01 0.0000000000000000e+00  4.1548887058288358e-01 1.8521886594479987e-02 0.0000000000000000e+00  1.2019565024768455e+00 1.6492938357331826e-02 0.0000000000000000e+00  1.1818572934249680e+00 2.5546353296925312e-01 0.0000000000000000e+00  1.3936806928859136e+00 1.2959047816929498e-03 0.0000000000000000e+00  9.9083551927986913e-01 -1.9990282025585848e-02 0.0000000000000000e+00  1.3810494720820610e+00 2.1761918717014619e-01 0.0000000000000000e+00  1.1088374757562895e+00 8.3485449199766446e-03 0.0000000000000000e+00  8.2117488141230060e-07 -1.3199047196879874e-08 0.0000000000000000e+00  1.8390891587809481e+00 -6.0972164022036743e-02 0.0000000000000000e+00  1.1435660112181578e+00 -2.5637426003254193e-01 0.0000000000000000e+00  1.6150745551896082e+00 -5.6853862724401343e-02 0.0000000000000000e+00  -8.1866499961696533e-07 -3.6540313092216469e-08 0.0000000000000000e+00  9.5543007471387098e-01 1.8498772706166022e-03 0.0000000000000000e+00  -2.4578623353190253e-06 -1.6036989919890242e-07 0.0000000000000000e+00  -6.9122693876090259e-06 2.7171171441876061e-07 0.0000000000000000e+00  1.1325371807266020e+00 -2.0641058909294210e-02 0.0000000000000000e+00  1.0051950093261459e-06 -2.7980582039564442e-08 0.0000000000000000e+00  1.8260036533700510e+00 7.8384948546766364e-02 0.0000000000000000e+00  1.0227084995492413e+00 -2.2082240746867025e-03 0.0000000000000000e+00  1.7926319895956093e+00 -1.1335041847875398e-01 0.0000000000000000e+00  -2.7866300280822907e-06 -6.5572954931817907e-08 0.0000000000000000e+00  1.7978889021757787e+00 -1.4133604517595674e-01 0.0000000000000000e+00  -9.1562070045810876e-09 5.7748499114793557e-08 0.0000000000000000e+00  1.0604331486182188e+00 3.7735518740987873e-03 0.0000000000000000e+00  1.6012533083765106e+00 1.2875583378258196e-01 0.0000000000000000e+00  -2.3592523653123657e-06 -2.3016110881848676e-08 0.0000000000000000e+00  1.7220395815369895e+00 7.4910228505605969e-02 0.0000000000000000e+00  1.3596387435772026e+00 -3.0229945163988425e-01 0.0000000000000000e+00  1.3399807022057590e+00 -1.2282366688727424e-01 0.0000000000000000e+00  1.3729754025036889e+00 1.2467379031438361e-01 0.0000000000000000e+00  -1.3537390762248103e-07 1.7333222221326266e-08 0.0000000000000000e+00  1.2897060971848213e+00 1.7405685545598917e-02 0.0000000000000000e+00  1.0578851805904832e+00 -6.0722357656066506e-03 0.0000000000000000e+00  1.2155364645208384e-06 -1.0974233184367684e-07 0.0000000000000000e+00  1.2077639049765800e+00 4.6255029478648965e-04 0.0000000000000000e+00  8.5212775054944856e-01 -1.2439868236888002e-02 0.0000000000000000e+00  1.1097264103564342e+00 5.8505897387979901e-05 0.0000000000000000e+00  1.1345857773566885e+00 9.1956990799791031e-03 0.0000000000000000e+00  1.0387541791069406e+00 -3.7574051096808138e-04 0.0000000000000000e+00  1.9202975173482866e+00 1.8454164343508611e-01 0.0000000000000000e+00  1.4634401471189200e+00 1.1113856161429309e-02 0.0000000000000000e+00  2.2821253659773847e-06 2.1022609989765543e-10 0.0000000000000000e+00  3.2743747605260332e-07 1.7522316098561824e-08 0.0000000000000000e+00  -7.9959912797280108e-07 -5.6354356957851853e-08 0.0000000000000000e+00  6.5625203842892810e-01 1.6560268525150849e-08 0.0000000000000000e+00  -1.9487511764450766e-07 3.5257123756052813e-09 0.0000000000000000e+00  1.0058701550350737e+00 7.7385760821350345e-03 0.0000000000000000e+00  1.6267892258094987e+00 1.2331452458974168e-01 0.0000000000000000e+00  1.3440216003977277e+00 1.5942812716320982e-02 0.0000000000000000e+00  -4.2861409712868147e-07 3.3686555216903118e-08 0.0000000000000000e+00  -3.3365219145902780e-06 1.2494691796647323e-07 0.0000000000000000e+00  -1.7705310473096455e-07 5.9798299841094177e-08 0.0000000000000000e+00  -1.1903241063586323e-06 3.2703395732950429e-08 0.0000000000000000e+00  -1.0643506259103739e-06 -1.8370340304971570e-08 0.0000000000000000e+00  -2.1518596824666065e-07 5.0277424564560929e-08 0.0000000000000000e+00  -2.6815131883472425e-06 -1.3165722471622458e-07 0.0000000000000000e+00  -7.9496397981192671e-07 -8.4093835770485146e-08 0.0000000000000000e+00  2.0030688888539593e-07 -3.6531058189663485e-09 0.0000000000000000e+00  3.6435223163299989e-07 1.5867504934259015e-08 0.0000000000000000e+00  1.1742721266439837e-06 -8.5914833772661140e-08 0.0000000000000000e+00  -8.2416028864921341e-07 1.4449865762468082e-07 0.0000000000000000e+00  -2.2613670625961835e-07 5.2161953742661947e-08 0.0000000000000000e+00  -1.7047313412917216e-06 7.3903714165961223e-08 0.0000000000000000e+00  -2.6738721934201023e-06 -1.7582276673949838e-07 0.0000000000000000e+00  -2.3409295058834279e-06 -2.8179850554836730e-08 0.0000000000000000e+00  -1.2500877471894480e-06 2.0093300484375761e-08 0.0000000000000000e+00  -2.2687637451350394e-06 -1.0503284260906995e-08 0.0000000000000000e+00  7.2400628322874483e-01 -4.3572137928409506e-02 0.0000000000000000e+00  8.6452155064123914e-01 5.3521894167830415e-03 0.0000000000000000e+00  8.7072162532197805e-01 -7.9284502763353378e-05 0.0000000000000000e+00  9.3883585803620917e-01 4.7833672169626156e-03 0.0000000000000000e+00  1.6559781957457460e+00 -6.9574894553609587e-02 0.0000000000000000e+00  5.8858737153342517e-03 -9.4060853074883419e-03 0.0000000000000000e+00  4.0125306657803776e-02 -3.1252847825045060e-02 0.0000000000000000e+00  1.1976457583006266e+00 4.0715988045614708e-02 0.0000000000000000e+00  9.7709256403878531e-01 8.5868551887749542e-04 0.0000000000000000e+00  1.1102974337501206e+00 -2.6156684244227808e-02 0.0000000000000000e+00  1.2163384243512911e+00 -1.5646904494844734e-02 0.0000000000000000e+00  8.1764827768831749e-01 2.6121143382073597e-03 0.0000000000000000e+00  1.1992767086256273e+00 -1.6574549444879298e-02 0.0000000000000000e+00  1.1791946138834410e+00 -2.4918653227232829e-02 0.0000000000000000e+00  1.2749403057665696e+00 -2.9095779938817373e-03 0.0000000000000000e+00  1.1877867411931580e+00 1.5411482504302401e-02 0.0000000000000000e+00  8.6654341888140396e-01 -1.3505011808981557e-03 0.0000000000000000e+00  9.2395321980814826e-01 2.7687651942816922e-04 0.0000000000000000e+00  8.8159355050208232e-01 -2.0899138900958306e-02 0.0000000000000000e+00  8.1459963122682977e-01 7.3663636566139853e-03 0.0000000000000000e+00  2.3173440823044872e-01 5.1318552721314303e-02 0.0000000000000000e+00  1.2275735823052620e+00 -7.0393093885399174e-02 0.0000000000000000e+00  9.4582948386428489e-01 -6.3149336928407115e-02 0.0000000000000000e+00  1.0968498691313999e+00 -1.1348789612813885e-01 0.0000000000000000e+00  1.5560654733982151e+00 -1.6820268930531507e-01 0.0000000000000000e+00  1.2656647719510628e+00 2.6015730906130152e-03 0.0000000000000000e+00  1.5337058525844489e+00 -2.6250684926006650e-02 0.0000000000000000e+00  1.4842323347909228e+00 3.2099365475411520e-02 0.0000000000000000e+00  1.2369810648221151e+00 -1.0228146059858690e-02 0.0000000000000000e+00  1.4298024944233994e+00 -1.0787405503414167e-01 0.0000000000000000e+00  1.4825562955087606e+00 -1.0200597016647903e-01 0.0000000000000000e+00  9.8322936589714161e-01 2.0085314965519220e-03 0.0000000000000000e+00  8.0039182189966376e-02 -5.4843517289746888e-02 0.0000000000000000e+00  2.8542373274446770e-01 2.3715835148441011e-02 0.0000000000000000e+00  1.4022927353497627e+00 -1.0033722630825399e-02 0.0000000000000000e+00  9.4605542273399257e-01 3.6866908520212720e-03 0.0000000000000000e+00  1.1773145999295827e+00 3.5648595761804814e-03 0.0000000000000000e+00  1.4163376281175499e+00 -2.6351616831697105e-02 0.0000000000000000e+00  7.8787769618508574e-01 1.8117372507128842e-02 0.0000000000000000e+00  9.0033095705238941e-01 8.5671016087530939e-04 0.0000000000000000e+00  1.3597483721352122e+00 3.2737764802176612e-03 0.0000000000000000e+00  1.0365524755865185e+00 6.4718543295027423e-02 0.0000000000000000e+00  8.7413948640152495e-01 1.4249728897933820e-03 0.0000000000000000e+00  6.5624905603269523e-01 8.6597453094332491e-08 0.0000000000000000e+00  1.0830440659390825e+00 5.3234921995805339e-02 0.0000000000000000e+00  1.5679441900588502e+00 3.7304032893145461e-02 0.0000000000000000e+00  1.5861514364497626e+00 -4.4429791188521535e-02 0.0000000000000000e+00  1.0354012922544056e+00 1.1917271233414746e-01 0.0000000000000000e+00  1.0721272713384378e+00 7.0386455975531531e-02 0.0000000000000000e+00  7.4512793330509586e-01 5.1372799107525565e-03 0.0000000000000000e+00  8.0605430344867290e-01 8.8513001178435330e-02 0.0000000000000000e+00  1.4856121297076086e+00 2.4975693628520733e-03 0.0000000000000000e+00  1.6512127192202757e+00 1.6812470383373607e-01 0.0000000000000000e+00  1.3686081002930721e+00 -7.7257454194927574e-03 0.0000000000000000e+00  1.5024600348501831e+00 -4.3520407386441005e-03 0.0000000000000000e+00  1.6078023842626679e+00 -1.7219224157564796e-02 0.0000000000000000e+00  1.4989389523625134e+00 -1.3663848884040561e-01 0.0000000000000000e+00  1.1316471368193664e+00 2.7418436661146794e-02 0.0000000000000000e+00  1.3466400005892658e+00 9.3351890418499894e-04 0.0000000000000000e+00  1.3231003953244047e+00 1.3218570299856982e-02 0.0000000000000000e+00  7.9040432766608215e-01 5.7730504760972069e-03 0.0000000000000000e+00  1.5890725506225285e+00 6.5187658680601571e-02 0.0000000000000000e+00  9.4149806104405021e-01 9.3610110473140398e-02 0.0000000000000000e+00  1.3498586554370926e+00 7.1548715990374266e-03 0.0000000000000000e+00  1.2233609193628912e+00 1.6056745524609720e-01 0.0000000000000000e+00  8.8155356783102445e-01 -4.1899255257155273e-03 0.0000000000000000e+00  1.1972994614016470e+00 1.2785669769614391e-03 0.0000000000000000e+00  1.3609492994770913e+00 9.6637397403177297e-02 0.0000000000000000e+00  1.5020218920299269e+00 1.0353469028639990e-02 0.0000000000000000e+00  1.3386434504256948e+00 8.7988165605489554e-03 0.0000000000000000e+00  1.4472105119646912e+00 -7.9623796340806728e-04 0.0000000000000000e+00  1.3528663641646066e+00 -1.6214277850897789e-02 0.0000000000000000e+00  1.4740199424173521e+00 1.1417306656921008e-02 0.0000000000000000e+00  6.6285580874724437e-01 -1.9059088847286946e-03 0.0000000000000000e+00  6.3070862513237602e-01 -3.3511179365462431e-03 0.0000000000000000e+00  7.3865003471262169e-01 7.2730581885478681e-03 0.0000000000000000e+00  8.3209134350014335e-01 1.1318482998786436e-03 0.0000000000000000e+00  1.3163036624346771e+00 2.2805046827432847e-03 0.0000000000000000e+00  7.2388883035985818e-01 -1.0168552423854716e-03 0.0000000000000000e+00  1.3273234018024871e+00 1.5741204434694796e-02 0.0000000000000000e+00  1.4273688262865203e+00 -8.3701912915359229e-03 0.0000000000000000e+00  7.9440560956614781e-01 5.9634580521654066e-04 0.0000000000000000e+00  8.2285336688441302e-01 4.1822801468119980e-02 0.0000000000000000e+00  1.3423155652235939e+00 -7.5916083614839197e-03 0.0000000000000000e+00  1.3955361638191139e+00 9.0636747167593384e-03 0.0000000000000000e+00  5.4723799999371403e-01 -6.9338684891019143e-04 0.0000000000000000e+00  1.3620100625041978e+00 -1.8133351075097271e-02 0.0000000000000000e+00  7.6214922897829995e-01 -9.4835259042186076e-03 0.0000000000000000e+00  7.8671411654936529e-01 -1.9613101970172133e-03 0.0000000000000000e+00  7.3881179626394644e-01 -7.9180901593258787e-02 0.0000000000000000e+00  1.1969731304456328e+00 -5.1739974086177032e-02 0.0000000000000000e+00  6.5317543975432213e-01 1.8890672912546392e-03 0.0000000000000000e+00  1.5195475584423301e+00 2.0301058682337121e-02 0.0000000000000000e+00  1.5283811437646624e+00 4.7608205676659215e-01 0.0000000000000000e+00  1.0046065341891470e+00 1.8217605820025842e-01 0.0000000000000000e+00  7.5284206427041844e-01 8.6677415058713180e-04 0.0000000000000000e+00  1.3189682343717262e+00 -1.2563541230332245e-01 0.0000000000000000e+00  1.4489152501984861e+00 -5.4609985155026475e-01 0.0000000000000000e+00  6.8341676408105834e-01 2.3778887521959621e-03 0.0000000000000000e+00  7.7488354650727742e-01 2.5370027299822686e-03 0.0000000000000000e+00  1.4943681289317081e+00 -1.1372192861833384e-02 0.0000000000000000e+00  3.7911856237605490e-01 7.3693592232657673e-02 0.0000000000000000e+00  1.4062539974655821e+00 1.2640891486706200e-07 0.0000000000000000e+00  1.3283483229496700e+00 1.4434653752711749e-03 0.0000000000000000e+00  7.4149869263278390e-01 -3.2201465120413806e-04 0.0000000000000000e+00  1.4062505960673564e+00 3.9919429494872325e-08 0.0000000000000000e+00  7.4133826060130814e-01 9.8418102787453101e-04 0.0000000000000000e+00  1.8372699757474280e+00 -3.2980777554500035e-01 0.0000000000000000e+00  1.4760352112680084e+00 -9.6262224138287354e-03 0.0000000000000000e+00  7.1441913369838606e-01 9.8563015290195927e-02 0.0000000000000000e+00  1.2757786790989922e+00 -1.1090426751392863e-02 0.0000000000000000e+00  6.8562914427256749e-01 -4.5419308646969083e-03 0.0000000000000000e+00  5.2099481589223218e-01 -4.3557492134630475e-03 0.0000000000000000e+00  1.3949564432457944e+00 -3.3196349436152817e-04 0.0000000000000000e+00  4.9153320179704085e-01 -4.2242400896334194e-03 0.0000000000000000e+00  6.5835718193788273e-01 -1.5541223583349563e-03 0.0000000000000000e+00  1.3073440668129983e+00 -4.416206