<?xml version="1.0"?>
<VTKFile type="UnstructuredGrid"  version="0.1"  >
<UnstructuredGrid>
<Piece  NumberOfPoints="2426" NumberOfCells="4534">
<Points>
<DataArray  type="Float64"  NumberOfComponents="3"  format="ascii">0 0.41 0  0 0 0  2.2 0 0  2.2 0.41 0  0.2404508497187474 0.2293892626146237 0  0.25 0.2 0  0.2404508497187474 0.1706107373853764 0  0.2154508497187474 0.1524471741852423 0  0.1845491502812526 0.1524471741852423 0  0.1595491502812526 0.1706107373853764 0  0.15 0.2 0  0.1595491502812526 0.2293892626146237 0  0.1845491502812527 0.2475528258147577 0  0.2154508497187474 0.2475528258147577 0  0.5404508497187474 0.2293892626146237 0  0.55 0.2 0  0.5404508497187474 0.1706107373853764 0  0.5154508497187473 0.1524471741852423 0  0.4845491502812526 0.1524471741852423 0  0.4595491502812526 0.1706107373853764 0  0.45 0.2 0  0.4595491502812526 0.2293892626146237 0  0.4845491502812526 0.2475528258147577 0  0.5154508497187473 0.2475528258147577 0  1.1 0 0  0 0.205 0  1.1 0.41 0  0.55 0 0  0.55 0.41 0  0.275 0 0  0.275 0.41 0  1.65 0.41 0  1.65 0 0  1.375 0 0  1.375 0.41 0  1.925 0 0  1.925 0.41 0  0.8250000000000001 0.41 0  0.8250000000000001 0 0  1.5125 0.205 0  1.7875 0.205 0  0.9625000000000001 0.205 0  1.2375 0.205 0  2.2 0.205 0  0.7560964076246335 0.2151713709677419 0  1.99375 0.2152743902439024 0  2.0625 0 0  0.6875 0 0  2.0625 0.41 0  2.2 0.3075 0  0.6875 0.41 0  1.7875 0.41 0  1.375 0.1486128048780488 0  1.5125 0 0  1.7875 0 0  1.5125 0.41 0  0.9625000000000001 0 0  0.9625000000000001 0.41 0  0.4125 0 0  0.1375 0 0  0.1375 0.41 0  0.4125 0.41 0  1.2375 0 0  1.1 0.1486128048780487 0  1.2375 0.41 0  1.65 0.1486128048780487 0  1.126715909090909 0.2793064024390244 0  1.676715909090909 0.2793064024390244 0  1.348284090909091 0.2793064024390244 0  0.34375 0.3032389320646208 0  1.894702181800738 0.1282910975492754 0  2.092797818199262 0.1282910975492754 0  1.85625 0.3075 0  0.8630851210521902 0.286932093388664 0  0.89375 0.1025 0  0.35 0.1090282786671641 0  0 0.3075 0  0 0.1025 0  0.6526217841291382 0.288229645480046 0  0.7562500000000001 0.09660248895515888 0  0.6568633732316684 0.1557582854763441 0  2.099172119769978 0.25625 0  1.002356446954348 0.1010393851523063 0  1.99375 0.08395950269330846 0  1.459960956013612 0.3075 0  1.569025960719943 0.2986889805672169 0  1.03125 0.3278689922742084 0  0.75625 0.3247156761655783 0  1.959375 0.3126371951219512 0  1.749222215368287 0.1025 0  1.275777784631713 0.1025 0  2.2 0.1025 0  1.225938124459196 0.3075 0  1.550777784631713 0.1025 0  1.44375 0.07430640243902442 0  1.16875 0.07430640243902437 0  0.3528655045338512 0.2063263890916129 0  0.5890337614812103 0.08775733857679162 0  0.8504912436891263 0.190072835691683 0  1.899250267340833 0.2229966846119207 0  0.1020898364287272 0.3140258291809757 0  1.766482954545455 0.2934032012195123 0  1.051658316544432 0.2265720188842194 0  0.2 0.3400647632937836 0  1.421109702350723 0.2261157654379721 0  0.4812500000000001 0.41 0  0.4324401666997539 0.3216425986889796 0  0.098916018031319 0.09171660955420841 0  0.9508742791313441 0.2921736960864468 0  2.13125 0 0  2.118919042110979 0.3422084711244843 0  1.30625 0.41 0  0.20625 0 0  1.597888256393107 0.2173787389261347 0  0.4812500000000001 0 0  0.4324082967851086 0.08384041677422771 0  1.829299675393195 0.07400700849299596 0  0.568219932524165 0.3212274660843853 0  1.71875 0.41 0  0.268005226542646 0.08512186835670006 0  1.16875 0.41 0  2.038220665644273 0.332420740103091 0  0.6678017527842831 0.07701763866051195 0  0.89375 0.41 0  0.5111435174287687 0.07335351331957608 0  0.176193934632343 0.0734896648625108 0  0.07390688010811153 0.1697064032433452 0  0.05452951551825875 0.25625 0  0.61875 0.41 0  1.452769549894695 0.1548122580621249 0  1.369219062229598 0.07430640243902442 0  1.30625 0 0  1.720943423819132 0.1714577452753128 0  1.157188124459196 0.205 0  1.094219062229598 0.07430640243902437 0  1.304056576180868 0.1714577452753128 0  1.67579304192913 0.07430640243902437 0  0.2672907219039591 0.3037570723459566 0  1.209670467133757 0.1362100266964769 0  1.58125 0 0  1.03125 0 0  0.06875000000000001 0.41 0  0 0.35875 0  1.58125 0.41 0  1.631724228912893 0.3381867502687533 0  0.8240147050827157 0.1225233169495944 0  1.825608881788174 0.14499488549201 0  1.85625 0 0  1.44375 0 0  1.44375 0.41 0  1.85625 0.41 0  2.13125 0.41 0  0.7562500000000001 0.41 0  0.7562500000000001 0 0  0.89375 0 0  0.34375 0 0  0.34375 0.41 0  0.20625 0.41 0  0.06875000000000001 0 0  1.16875 0 0  1.03125 0.41 0  0.61875 0 0  1.71875 0 0  1.99375 0 0  1.99375 0.41 0  0.3972301426712326 0.2593842555611471 0  1.340625 0.3489494290853124 0  1.134375 0.3489494290853123 0  1.700180620188976 0.3438659752031281 0  0.5003922072260507 0.341765274319271 0  0.6212513815748759 0.2209216137134851 0  0.6885607720119526 0.215393731583638 0  1.033412357328477 0.1612902025713047 0  2.135782184673599 0.07126652247502523 0  1.668441847249787 0.2129203728327609 0  1.295782514339747 0.2378437748815763 0  1.409375 0.3520314716057996 0  2.129248544730567 0.1906135162504124 0  2.060771381434487 0.1989445750470348 0  2.013252586573865 0.1496169464686054 0  1.942766402200229 0.1734448904596831 0  1.895522487186454 0.06076163953489683 0  2.069553871656643 0.06605731020975725 0  0.9281250000000001 0.3539050257418612 0  1.274680914880868 0.3520219391081363 0  0.3030138498135347 0.2488370856812789 0  0.8223773249563684 0.341761430177996 0  0.9018164060227267 0.2326477848736739 0  0.8143027982392851 0.2440265179987191 0  0.7225087161029304 0.2699907246386231 0  1.614713220494657 0.09473434380863296 0  0.378125 0.3566194660323104 0  0.309375 0.3566194660323104 0  1.72990325744076 0.2380068107952482 0  0.6915936999299305 0.3429472631234433 0  0.6268087624932918 0.3466455500035671 0  1.356580098625191 0.2120393231351682 0  0.3060160055995138 0.1590148921620778 0  0.3954648733249218 0.156380553890791 0  2.034370752044885 0.2668681600792073 0  1.51768709249349 0.3426260931494756 0  1.561883724969884 0.1650446847858835 0  1.197344062229598 0.2523725417393646 0  0.9281250000000001 0.05124999999999999 0  1.804085235518364 0.3468178408964637 0  1.817887819205233 0.2589243285818559 0  0.9107805776841645 0.1653834539923287 0  1.905897727272727 0.3485060975609756 0  0 0.05125 0  0.844212276491354 0.0614201194265309 0  0.378125 0.05244637078450034 0  1.008571329007178 0.2705955969954818 0  0.7724048032149464 0.1559079561351474 0  0.7203054377831548 0.04941826955193545 0  1.192836486056382 0.3562350748565544 0  0.5967108020713719 0.1479294686523888 0  1.28257088594801 0.2944411014911587 0  0.7041890234548132 0.1222025174424443 0  1.474860187679412 0.2504218616229368 0  1.406767003493824 0.2829282258560709 0  0.3201325899091991 0.05890121548989159 0  0.5979220912872258 0.2727591995766724 0  1.845656689180403 0.1998310418452388 0  2.144958525570388 0.2909790873294231 0  2.2 0.15375 0  1.57794966442982 0.3540357145964566 0  0.9483181579620558 0.1214693369582054 0  0.0496154796471391 0.333125 0  1.508991196088596 0.1421783375065625 0  0.09776612425612034 0.2204896805326566 0  1.50436820029908 0.06143401634903343 0  1.223857000523521 0.0823554862453532 0  0.2531953886959507 0.3582003209055908 0  1.153316824384777 0.1289850171317837 0  2.148922302309752 0.1258841779285271 0  1.621993280276081 0.2841214267927899 0  1.550118654119087 0.2461998729100966 0  1.327182649291491 0.1216967252533594 0  1.753125 0.04556020050186112 0  1.271875 0.04556020050186116 0  0.9824282234771738 0.05051969257615314 0  1.039510847866381 0.05683351822678641 0  1.94956388244759 0.1180512551534177 0  1.949997712993411 0.04965831614304109 0  1.771961817615021 0.1530278789497521 0  1.909246823951428 0.2812757146784527 0  1.101974016627944 0.2038045618205013 0  0.7906250000000001 0.0444674049654372 0  1.948575539857022 0.2445328248721197 0  1.697271520964565 0.1233917627620729 0  1.065625 0.3689344961371042 0  1.085849084308977 0.3170853572226867 0  0.9840604787624379 0.3582077516409966 0  1.577403511714593 0.05463601888079143 0  0.05622663515370135 0.05493816910862376 0  0.8762396958822678 0.3392249777398821 0  1.751571320346033 0.3651102912045228 0  1.055327852410105 0.111864799513911 0  0.1583785085108421 0.2994699345738728 0  0.1455283439499995 0.3542795598723423 0  2.2 0.35875 0  0.225705107073232 0.05084786997482401 0  0.1455852234589313 0.1166494778469164 0  1.466879772203159 0.3611261772912453 0  1.990280163552011 0.3564754268533217 0  1.17471064520912 0.2990917256188288 0  0.7221925551074015 0.1739659241003985 0  0 0.25625 0  2.2 0.25625 0  2.2 0.05125 0  0 0.15375 0  1.853978576207987 0.35875 0  0.21965520498276 0.1015543880164422 0  1.515638456102889 0.2882700110184686 0  0.09048297387599738 0.3637717362208066 0  2.150453692751374 0.2387066338105111 0  1.323782677156475 0.04897634338873398 0  1.409375 0.03715320121951221 0  1.406484531114799 0.1087852750766809 0  1.134375 0.03715320121951218 0  1.627401732573545 0.04552157221025036 0  0.446875 0.3713289093361426 0  2.045405893604797 0.1105340662939892 0  1.255408269734577 0.1577307500159216 0  2.028125 0.03707597992059326 0  0.04420832937638274 0.128125 0  0.5817551710628505 0.3702615006034757 0  0.1197849154434487 0.2663398672460083 0  1.248258025468107 0.2565907092181813 0  0.1300647302703173 0.0508462728378621 0  0.7738123537510222 0.2761231499240648 0  1.203125 0.0366132337404304 0  0.5444207041612499 0.111205399508622 0  0.8016457771828226 0.1964238426015905 0  2.072662025974815 0.2975086504196739 0  0.4019040438866802 0.2103993403217561 0  0.4677372330974851 0.04827477407630658 0  0.8677218578847617 0.1432970430140788 0  1.058011122005847 0.2758866204059919 0  0.4429405887974043 0.2746184809910084 0  0.5843750000000001 0.03726989681835222 0  0.6318596133730142 0.1128692182767254 0  0.4862628454464408 0.2957029785303028 0  0.7805186758662764 0.3673578380827891 0  1.887722846421017 0.1760882698830035 0  0.3498893058880703 0.256189258793856 0  1.472640588990488 0.1118278026240017 0  1.865937103925594 0.2604137786483804 0
[...]
<PointData  Vectors="f_37"> 
<DataArray  type="Float64"  Name="f_37"  NumberOfComponents="3" format="ascii">-5.6727555409321100e-07 2.2094721105579885e-08 0.0000000000000000e+00  3.2520721032914554e-07 -2.0448249039675714e-08 0.0000000000000000e+00  -1.9969575645600128e-07 -2.0336873228189417e-10 0.0000000000000000e+00  1.5793776214771884e-06 -5.4478114942709550e-09 0.0000000000000000e+00  -3.4887657284027918e-06 1.8417603203536326e-06 0.0000000000000000e+00  -5.2271363883674562e-06 5.1231069687331705e-06 0.0000000000000000e+00  -5.0511116094927079e-06 2.4586895049823121e-06 0.0000000000000000e+00  1.8978609720181049e-06 4.9267664344078783e-07 0.0000000000000000e+00  3.2083593026655083e-06 -1.0207785018073277e-06 0.0000000000000000e+00  -2.5801466288606772e-06 9.4118530845099766e-07 0.0000000000000000e+00  -1.8024059243451191e-06 3.1552276229898820e-06 0.0000000000000000e+00  5.0131224646509225e-06 2.0553438167013460e-06 0.0000000000000000e+00  -2.5865938953617071e-07 -3.4788653863498766e-06 0.0000000000000000e+00  -3.9916380001471430e-06 -2.7306095380726337e-06 0.0000000000000000e+00  5.8528853183823716e-06 5.3596296488243311e-06 0.0000000000000000e+00  -4.5954152287383381e-06 2.4905848237045019e-06 0.0000000000000000e+00  -1.5213212049709611e-06 -3.8433278032991647e-06 0.0000000000000000e+00  -6.2946175878395564e-06 -2.6075307582504295e-06 0.0000000000000000e+00  -1.8502910999497911e-05 6.6007325498733930e-06 0.0000000000000000e+00  2.1367265961303430e-05 -4.2501572902432376e-06 0.0000000000000000e+00  2.3994076861464067e-05 -6.0761577245577008e-06 0.0000000000000000e+00  2.3800790601160367e-05 -4.4601178007546590e-06 0.0000000000000000e+00  -1.9422105390454466e-05 4.3557905474342319e-07 0.0000000000000000e+00  -9.3447302418368893e-06 2.6767994690007742e-07 0.0000000000000000e+00  -1.9573370379231798e-06 6.6290059027917044e-09 0.0000000000000000e+00  1.5000026850696531e+00 5.9745965511126145e-07 0.0000000000000000e+00  -3.2316959368583972e-06 9.7957600665636607e-09 0.0000000000000000e+00  3.1667495871709152e-06 -8.9679690901983248e-07 0.0000000000000000e+00  3.5446278070008696e-06 9.6877173782820935e-07 0.0000000000000000e+00  -4.1794648566674856e-06 1.7409620080522841e-07 0.0000000000000000e+00  -2.5909199346674176e-06 -6.1944702608089764e-08 0.0000000000000000e+00  5.0059499754955527e-07 2.5219684439238001e-09 0.0000000000000000e+00  2.8627415768854919e-07 -1.1288529901965970e-08 0.0000000000000000e+00  3.2350389402503285e-06 3.2727659359305966e-09 0.0000000000000000e+00  2.0728614177409711e-06 1.0079629698657222e-08 0.0000000000000000e+00  7.4356484555818732e-07 1.3546528125549914e-08 0.0000000000000000e+00  -8.8030563352858695e-07 -9.9874601590048856e-09 0.0000000000000000e+00  -3.3278473455309972e-07 6.5028039750436967e-07 0.0000000000000000e+00  -1.6817592057061145e-06 -1.5245891584127808e-06 0.0000000000000000e+00  1.1399664312852866e+00 -2.1601651814223488e-05 0.0000000000000000e+00  1.1398737206543881e+00 -2.1549030650439492e-05 0.0000000000000000e+00  1.0201571941998047e+00 -1.0005211434708682e-02 0.0000000000000000e+00  1.1403282746235646e+00 -1.3805084927860265e-03 0.0000000000000000e+00  1.1397338848252228e+00 -2.7533647898033643e-05 0.0000000000000000e+00  2.3859666841838020e-01 -1.1872137886834870e-01 0.0000000000000000e+00  1.1399116912515850e+00 -4.4875107557190137e-05 0.0000000000000000e+00  -2.9652460557958161e-06 5.1223292425835964e-09 0.0000000000000000e+00  -3.3536209977979434e-06 5.8519041124990868e-07 0.0000000000000000e+00  -1.2771025168051339e-06 -7.7188599995259291e-10 0.0000000000000000e+00  1.1379602961473767e+00 1.9643838793148361e-05 0.0000000000000000e+00  9.2955927411457929e-08 -3.8363064661136150e-07 0.0000000000000000e+00  -6.8998429882834630e-07 -5.2501251001346824e-09 0.0000000000000000e+00  1.1397635499259651e+00 -2.3105357167813416e-04 0.0000000000000000e+00  3.6179505445365887e-06 6.0890968411177588e-09 0.0000000000000000e+00  -3.6504475729161432e-07 -2.1819309355257856e-10 0.0000000000000000e+00  8.2426901890241952e-07 9.4816085469844339e-09 0.0000000000000000e+00  -6.7502901453665913e-06 5.6086261930503904e-07 0.0000000000000000e+00  -4.0551494279148796e-06 -3.5062728277143668e-07 0.0000000000000000e+00  -1.0458948626491989e-06 4.0148759102526432e-07 0.0000000000000000e+00  5.6237887154112024e-08 5.8386838523864520e-08 0.0000000000000000e+00  6.2428827505049251e-07 1.1802313014736543e-07 0.0000000000000000e+00  -4.6947904784132165e-06 1.7007777897003562e-07 0.0000000000000000e+00  1.1424989618918338e-06 1.0061589974827563e-08 0.0000000000000000e+00  1.1406886795258560e+00 -2.6370017229154839e-03 0.0000000000000000e+00  -3.9755040182317646e-07 -1.0322642063604332e-08 0.0000000000000000e+00  1.1399567107765718e+00 3.1802502692366782e-05 0.0000000000000000e+00  1.1485293804717991e+00 -1.3306110463396814e-03 0.0000000000000000e+00  1.1397838190219012e+00 1.2742337304161349e-04 0.0000000000000000e+00  1.1400326713107243e+00 -1.4509618324646086e-04 0.0000000000000000e+00  2.0112881779459686e+00 5.9376932011120209e-02 0.0000000000000000e+00  1.1396828995992316e+00 -5.6934139184061758e-05 0.0000000000000000e+00  1.1397380810814672e+00 -1.2148678101033173e-04 0.0000000000000000e+00  1.1378497900654203e+00 4.4140097688874299e-06 0.0000000000000000e+00  1.3422395085786751e+00 -1.2133708378369912e-01 0.0000000000000000e+00  1.3143501033579916e+00 5.7995752287752438e-02 0.0000000000000000e+00  1.8998003037986324e+00 -1.5186442962592365e-02 0.0000000000000000e+00  1.1249986500617404e+00 -4.3519578895000171e-08 0.0000000000000000e+00  1.1250030352969500e+00 3.2870952513296899e-07 0.0000000000000000e+00  1.7738171536522138e+00 -9.4771481427589510e-02 0.0000000000000000e+00  1.5359010926972079e+00 1.1511022627882975e-01 0.0000000000000000e+00  7.3353551383917215e-01 5.5443577724208624e-02 0.0000000000000000e+00  1.1399031615474335e+00 -1.6174540747511192e-05 0.0000000000000000e+00  1.1862366956162358e+00 -1.8415753536446210e-02 0.0000000000000000e+00  1.1298101854289444e+00 2.5687944995754293e-05 0.0000000000000000e+00  1.1383870495636785e+00 -1.0580948259663014e-04 0.0000000000000000e+00  1.1391392649249663e+00 1.3909168600415966e-04 0.0000000000000000e+00  1.1498307303420665e+00 2.3200324959500550e-02 0.0000000000000000e+00  1.4405083534753198e+00 -7.6827924637075981e-02 0.0000000000000000e+00  1.1371823021188778e+00 -1.1434025025942082e-05 0.0000000000000000e+00  1.1374746148912509e+00 -3.0087584233052736e-04 0.0000000000000000e+00  1.1371312618171974e+00 -6.3889254466500283e-04 0.0000000000000000e+00  1.1376784020610364e+00 -2.1583451492652325e-04 0.0000000000000000e+00  1.1393364002779593e+00 3.2598565314803966e-04 0.0000000000000000e+00  1.1380510517133611e+00 4.9821400988831017e-05 0.0000000000000000e+00  1.1168996784629062e+00 -1.0210062107049613e-05 0.0000000000000000e+00  1.1125261562638904e+00 -2.7068191864944805e-03 0.0000000000000000e+00  -6.9041316900134331e-01 -5.4509075773758957e-02 0.0000000000000000e+00  1.7044835668548581e+00 7.3078391084048414e-02 0.0000000000000000e+00  6.5594856498341703e-01 2.6450979928486457e-02 0.0000000000000000e+00  1.1398946474001854e+00 -1.5855715885247712e-05 0.0000000000000000e+00  1.1821477384170496e+00 2.5830272734423049e-01 0.0000000000000000e+00  1.1394247227510255e+00 6.0534272813636469e-05 0.0000000000000000e+00  1.1376107195819107e+00 -2.1381943761076303e-02 0.0000000000000000e+00  1.3876419599899457e+00 2.2830813959872476e-01 0.0000000000000000e+00  1.1399346675377580e+00 -1.4864207365437157e-04 0.0000000000000000e+00  1.1771706750516376e-06 2.3276167165920914e-07 0.0000000000000000e+00  1.8917671500209357e+00 -1.1933063143834476e-01 0.0000000000000000e+00  1.1432488390111430e+00 -2.5828110212899985e-01 0.0000000000000000e+00  1.2533397887952069e+00 -1.9910186482125326e-02 0.0000000000000000e+00  -1.2957898152523637e-06 4.3204651050486391e-09 0.0000000000000000e+00  1.1010342758342422e+00 2.8252841597680507e-04 0.0000000000000000e+00  -2.4967081751020953e-06 -4.2161988808904710e-09 0.0000000000000000e+00  -7.5018809834967131e-06 3.4071573649695411e-07 0.0000000000000000e+00  1.1399719554754537e+00 5.6312444270448133e-05 0.0000000000000000e+00  2.4291864356587269e-06 -2.9172285038043371e-07 0.0000000000000000e+00  1.8547888156427805e+00 1.7002201142652670e-01 0.0000000000000000e+00  1.1162401469852752e+00 -4.4845554343334770e-06 0.0000000000000000e+00  1.7378271462424539e+00 -1.0888169965909170e-01 0.0000000000000000e+00  -3.7738926119214312e-06 -1.1924460813781119e-09 0.0000000000000000e+00  1.8174560268788875e+00 -1.7584830410475302e-01 0.0000000000000000e+00  -1.4965152956838797e-06 -8.2204205758164006e-09 0.0000000000000000e+00  1.1225230299776703e+00 -1.6799342681705365e-05 0.0000000000000000e+00  1.5229969177679388e+00 4.2670214177786978e-02 0.0000000000000000e+00  -4.5374965306817515e-07 1.0420440633912805e-07 0.0000000000000000e+00  1.6678987165113446e+00 1.0103215204454646e-01 0.0000000000000000e+00  1.3622192531830080e+00 -3.1156309256992909e-01 0.0000000000000000e+00  1.3393598934372963e+00 -1.2265554404757312e-01 0.0000000000000000e+00  1.3727893599683922e+00 1.2588967108094343e-01 0.0000000000000000e+00  4.1750817772028080e-06 2.3057079845836157e-07 0.0000000000000000e+00  1.1398702196636132e+00 -4.8144850039124103e-05 0.0000000000000000e+00  1.1158419624350273e+00 -1.8771963460145473e-04 0.0000000000000000e+00  1.6059365732011455e-06 -6.7285090339035832e-09 0.0000000000000000e+00  1.1398823005992060e+00 -1.0761157136213867e-05 0.0000000000000000e+00  1.1406128180524482e+00 -3.8424283288564114e-03 0.0000000000000000e+00  1.1090282901835431e+00 -1.2394083738975511e-02 0.0000000000000000e+00  1.1397708335828041e+00 -6.5085744957616267e-04 0.0000000000000000e+00  1.1163746238325329e+00 -1.5629547448951930e-04 0.0000000000000000e+00  1.9299950694783818e+00 2.1924871907504723e-01 0.0000000000000000e+00  1.1389028273792785e+00 -2.0368398727656544e-03 0.0000000000000000e+00  4.5766622656671566e-06 -7.0218980802689785e-09 0.0000000000000000e+00  -4.4657603400703548e-06 3.2159522704256422e-07 0.0000000000000000e+00  -7.1108125055849564e-07 -6.3348343042253358e-08 0.0000000000000000e+00  6.5625209010865937e-01 3.8302699598737113e-08 0.0000000000000000e+00  -1.7569162924727607e-06 2.6596393561096920e-09 0.0000000000000000e+00  1.1118567576438987e+00 3.3363838233534939e-04 0.0000000000000000e+00  1.3784894812926383e+00 1.8110306251219827e-01 0.0000000000000000e+00  1.1398328403607705e+00 -7.7883780382844980e-06 0.0000000000000000e+00  -4.2642902573677128e-07 1.6747741140487826e-09 0.0000000000000000e+00  -5.0904571641232533e-06 -2.3603341888707712e-09 0.0000000000000000e+00  3.4664580246185585e-07 -1.2250931826137395e-08 0.0000000000000000e+00  -2.0452968876920691e-06 1.5552045691590166e-08 0.0000000000000000e+00  -1.4268097067769769e-06 6.8405687008438517e-10 0.0000000000000000e+00  -2.7600514660680082e-06 -6.0105539583330999e-07 0.0000000000000000e+00  -6.8214136939272623e-06 8.1444273081800151e-07 0.0000000000000000e+00  4.0341582595296376e-06 -3.4908433866358426e-07 0.0000000000000000e+00  -8.8685708237730055e-07 9.5111629340466047e-08 0.0000000000000000e+00  -1.7626875882519529e-06 1.5164603958972831e-07 0.0000000000000000e+00  3.0586169872501497e-07 -1.9703528038168835e-07 0.0000000000000000e+00  -9.1675370916818385e-07 1.4937235638953440e-07 0.0000000000000000e+00  1.2125761751461544e-06 9.4278156011044541e-09 0.0000000000000000e+00  -5.2187497499765676e-06 -1.9398687217160415e-07 0.0000000000000000e+00  6.6963494438288180e-08 -7.5191180544825682e-07 0.0000000000000000e+00  -3.1703346943484759e-06 -2.2569107206371757e-09 0.0000000000000000e+00  -1.3958351550904114e-06 -7.6076518375682232e-09 0.0000000000000000e+00  -5.1927117342914038e-06 1.8985009875841372e-08 0.0000000000000000e+00  7.6411374621445638e-01 -4.2607886468855681e-02 0.0000000000000000e+00  1.0757712585457457e+00 1.4013520240859658e-04 0.0000000000000000e+00  1.0735962670128014e+00 4.4682820585948552e-03 0.0000000000000000e+00  1.0958112150378205e+00 1.0417960469677860e-04 0.0000000000000000e+00  1.6449445106285070e+00 -1.0796925932283799e-01 0.0000000000000000e+00  2.6432811658109148e-02 3.3252281421602206e-02 0.0000000000000000e+00  -1.6938665893408339e-02 -2.2546128097171419e-03 0.0000000000000000e+00  1.1372222504292471e+00 1.1957515048483906e-02 0.0000000000000000e+00  1.1100304525884965e+00 -2.5515897977846042e-04 0.0000000000000000e+00  1.1399434589642206e+00 3.9718633732313203e-05 0.0000000000000000e+00  1.1402708169991711e+00 -5.2336893739767475e-04 0.0000000000000000e+00  1.0611649901267137e+00 -1.5421122935937030e-04 0.0000000000000000e+00  1.1398231154855509e+00 -7.5624443521525529e-05 0.0000000000000000e+00  1.1398572151455495e+00 -6.6649561037858239e-05 0.0000000000000000e+00  1.1398626880949760e+00 -4.6904865557317155e-05 0.0000000000000000e+00  1.1399055211871811e+00 -2.8722230826049349e-05 0.0000000000000000e+00  1.0743055586140651e+00 -8.9296084191157389e-05 0.0000000000000000e+00  1.0956939533119916e+00 -2.1085631597849878e-04 0.0000000000000000e+00  1.0343552105648957e+00 2.7242041769030126e-02 0.0000000000000000e+00  1.0616511638685284e+00 3.3546691262621904e-04 0.0000000000000000e+00  2.7766834373650129e-01 1.1853315498965129e-01 0.0000000000000000e+00  1.2897473632091667e+00 -7.8526254968809148e-02 0.0000000000000000e+00  1.0875622680484582e+00 -8.6942254774428449e-02 0.0000000000000000e+00  1.1196679178772790e+00 -2.4118531795706030e-01 0.0000000000000000e+00  1.6117119180935682e+00 -1.6636251378431094e-01 0.0000000000000000e+00  1.1360241092084749e+00 8.8178802472085725e-06 0.0000000000000000e+00  1.5891099994544946e+00 -3.7681887359738618e-02 0.0000000000000000e+00  1.5238254501012538e+00 4.4689976482704549e-02 0.0000000000000000e+00  1.1398983006237109e+00 3.2027563597934161e-05 0.0000000000000000e+00  1.3719210566487694e+00 -4.1627294732769951e-02 0.0000000000000000e+00  1.4129784050928758e+00 -4.1460593878957425e-02 0.0000000000000000e+00  1.1399461750442073e+00 -3.2106746322135382e-04 0.0000000000000000e+00  1.6908999201110933e-01 -1.8390582180187226e-01 0.0000000000000000e+00  4.0557822602888238e-01 9.9685749317808950e-02 0.0000000000000000e+00  1.1399284045342581e+00 -2.8189180750086997e-05 0.0000000000000000e+00  1.0999940760972817e+00 1.5198153331945843e-04 0.0000000000000000e+00  1.1399359404787894e+00 4.0968050645621890e-05 0.0000000000000000e+00  1.1419592243585255e+00 -1.3984938561281751e-03 0.0000000000000000e+00  9.5701341535142936e-01 -3.5634628483017579e-02 0.0000000000000000e+00  1.0858804440648853e+00 -3.4313950107153341e-05 0.0000000000000000e+00  1.1397744387715874e+00 -1.0600953251653638e-05 0.0000000000000000e+00  1.0971052542212125e+00 7.3554514213433814e-02 0.0000000000000000e+00  1.0784506437265211e+00 1.0457265057658482e-04 0.0000000000000000e+00  6.5624914864992134e-01 1.5810317534926516e-07 0.0000000000000000e+00  1.1866554759142438e+00 6.3795727824636286e-02 0.0000000000000000e+00  1.6263701045568646e+00 6.5120513111591991e-02 0.0000000000000000e+00  1.1975847695552662e+00 -1.5140387595664308e-02 0.0000000000000000e+00  9.6393293389437640e-01 2.0874468076349212e-01 0.0000000000000000e+00  1.1637455846692266e+00 3.7022251835263677e-02 0.0000000000000000e+00  1.0353107441228955e+00 9.9329826368656986e-04 0.0000000000000000e+00  9.0775872337960417e-01 8.0869450469620088e-02 0.0000000000000000e+00  1.1400764335605247e+00 -7.7675841768379478e-05 0.0000000000000000e+00  1.6431849366464379e+00 1.1277386765535616e-01 0.0000000000000000e+00  1.1399733793249642e+00 -6.3518776864326311e-05 0.0000000000000000e+00  1.1399032143066099e+00 -1.4275673288197794e-04 0.0000000000000000e+00  1.6636258530322456e+00 -3.1169875112585423e-02 0.0000000000000000e+00  1.6205469644116832e+00 -1.1983538824951356e-01 0.0000000000000000e+00  1.1398529596415448e+00 -1.2255416152270696e-05 0.0000000000000000e+00  1.1395574468109351e+00 1.8282716972634141e-05 0.0000000000000000e+00  1.1398718182477092e+00 -1.0765988982185381e-04 0.0000000000000000e+00  1.0505028267336665e+00 2.2210993963269125e-04 0.0000000000000000e+00  1.2437787670937994e+00 2.3917220758532858e-02 0.0000000000000000e+00  9.4174611518026086e-01 9.4786489705402585e-02 0.0000000000000000e+00  1.1398642173966618e+00 4.1693932974434344e-05 0.0000000000000000e+00  1.2224677565756308e+00 1.6143249989297440e-01 0.0000000000000000e+00  1.0785344899040015e+00 8.7493688673522923e-06 0.0000000000000000e+00  1.1256244135490729e+00 -1.1625502981741423e-03 0.0000000000000000e+00  1.3814183684031554e+00 1.0988457291029949e-01 0.0000000000000000e+00  1.1389734884879461e+00 -3.5578119147678697e-03 0.0000000000000000e+00  1.1396434959536672e+00 -1.6286275817415435e-04 0.0000000000000000e+00  1.1398456445023974e+00 1.4053643634783780e-04 0.0000000000000000e+00  1.1399772790450200e+00 2.7483458033229665e-05 0.0000000000000000e+00  1.1391682024577350e+00 -3.5005031203689499e-04 0.0000000000000000e+00  9.6890107212297649e-01 -1.6149364913282667e-04 0.0000000000000000e+00  9.6848415143455535e-01 -2.2439861026413006e-05 0.0000000000000000e+00  9.5376844255182502e-01 -4.3550948712045102e-02 0.0000000000000000e+00  1.0277192662703278e+00 -2.7599910345337517e-02 0.0000000000000000e+00  1.1393669074830106e+00 -3.2219647427563259e-05 0.0000000000000000e+00  1.0043625261549132e+00 -5.4225220526042207e-05 0.0000000000000000e+00  1.1398326890330288e+00 -2.1991972583078320e-05 0.0000000000000000e+00  1.1398189853270710e+00 -1.1307928826520436e-05 0.0000000000000000e+00  1.1373329122560190e+00 -7.7633788524589225e-03 0.0000000000000000e+00  1.0176371171397069e+00 6.0853605667952192e-02 0.0000000000000000e+00  1.1398857925029562e+00 -3.5346832051973805e-05 0.0000000000000000e+00  1.1396618746033949e+00 -7.3500646527701043e-05 0.0000000000000000e+00  8.9849820852110296e-01 1.1906553557440008e-02 0.0000000000000000e+00  1.1485073641120624e+00 9.5029971559401957e-03 0.0000000000000000e+00  9.8130757949966441e-01 3.7099750321106920e-02 0.0000000000000000e+00  1.0409745427587787e+00 2.5304845479208796e-04 0.0000000000000000e+00  7.3893706152760574e-01 -7.9646870560734814e-02 0.0000000000000000e+00  1.2337116349772579e+00 -3.4316895047154253e-02 0.0000000000000000e+00  9.6136837650644069e-01 5.9731490734039445e-05 0.0000000000000000e+00  1.1561851284806584e+00 -1.0335965678683166e-02 0.0000000000000000e+00  1.5266228301407432e+00 4.8222996651886046e-01 0.0000000000000000e+00  1.0080009476255978e+00 1.8630686948496192e-01 0.0000000000000000e+00  1.0180815482170784e+00 3.2117931716733368e-04 0.0000000000000000e+00  1.3335595353704319e+00 -1.3866208774978653e-01 0.0000000000000000e+00  1.4467267525752667e+00 -5.5093489429004117e-01 0.0000000000000000e+00  9.9899443232283580e-01 1.3120774364812757e-05 0.0000000000000000e+00  1.0349302371796640e+00 -1.1231508732728529e-05 0.0000000000000000e+00  1.1424952365811314e+00 7.5344614288683557e-04 0.0000000000000000e+00  2.5692414103609762e-01 9.0552166872519255e-02 0.0000000000000000e+00  1.4062543400353522e+00 5.3920944435374406e-07 0.0000000000000000e+00  1.1398477473074142e+00 -1.9865964406809187e-05 0.0000000000000000e+00  1.0187413719562446e+00 -7.1208350637472532e-04 0.0000000000000000e+00  1.4062507905943742e+00 5.5707411554471614e-07 0.0000000000000000e+00  1.0184541317271363e+00 -1.4606799453593764e-05 0.0000000000000000e+00  1.8356759390133048e+00 -3.5217340581129175e-01 0.0000000000000000e+00  1.1398891618127729e+00 -2.6895302609447170e-05 0.0000000000000000e+00  7.1578170599805546e-01 1.0011279346963474e-01 0.0000000000000000e+00  1.1398202201367444e+00 -2.4319500924266075e-05 0.0000000000000000e+00  1.0001634115756282e+00 -1.4421451151128592e-04 0.0000000000000000e+00  8.6725284758883792e-01 9.6843631863418014e-05 0.0000000000000000e+00  1.1388189073818658e+00 -1.1211851804823877e-04 0.0000000000000000e+00  8.6416827356984294e-01 -1.8648663550180726e-03 0.0000000000000000e+00  9.6705678450644328e-01 -2.3626688171149227e-05 0.0000000000000000e+00  1.324595503247