<?xml version="1.0"?>
<VTKFile type="UnstructuredGrid"  version="0.1"  >
<UnstructuredGrid>
<Piece  NumberOfPoints="2426" NumberOfCells="4534">
<Points>
<DataArray  type="Float64"  NumberOfComponents="3"  format="ascii">0 0.41 0  0 0 0  2.2 0 0  2.2 0.41 0  0.2404508497187474 0.2293892626146237 0  0.25 0.2 0  0.2404508497187474 0.1706107373853764 0  0.2154508497187474 0.1524471741852423 0  0.1845491502812526 0.1524471741852423 0  0.1595491502812526 0.1706107373853764 0  0.15 0.2 0  0.1595491502812526 0.2293892626146237 0  0.1845491502812527 0.2475528258147577 0  0.2154508497187474 0.2475528258147577 0  0.5404508497187474 0.2293892626146237 0  0.55 0.2 0  0.5404508497187474 0.1706107373853764 0  0.5154508497187473 0.1524471741852423 0  0.4845491502812526 0.1524471741852423 0  0.4595491502812526 0.1706107373853764 0  0.45 0.2 0  0.4595491502812526 0.2293892626146237 0  0.4845491502812526 0.2475528258147577 0  0.5154508497187473 0.2475528258147577 0  1.1 0 0  0 0.205 0  1.1 0.41 0  0.55 0 0  0.55 0.41 0  0.275 0 0  0.275 0.41 0  1.65 0.41 0  1.65 0 0  1.375 0 0  1.375 0.41 0  1.925 0 0  1.925 0.41 0  0.8250000000000001 0.41 0  0.8250000000000001 0 0  1.5125 0.205 0  1.7875 0.205 0  0.9625000000000001 0.205 0  1.2375 0.205 0  2.2 0.205 0  0.7560964076246335 0.2151713709677419 0  1.99375 0.2152743902439024 0  2.0625 0 0  0.6875 0 0  2.0625 0.41 0  2.2 0.3075 0  0.6875 0.41 0  1.7875 0.41 0  1.375 0.1486128048780488 0  1.5125 0 0  1.7875 0 0  1.5125 0.41 0  0.9625000000000001 0 0  0.9625000000000001 0.41 0  0.4125 0 0  0.1375 0 0  0.1375 0.41 0  0.4125 0.41 0  1.2375 0 0  1.1 0.1486128048780487 0  1.2375 0.41 0  1.65 0.1486128048780487 0  1.126715909090909 0.2793064024390244 0  1.676715909090909 0.2793064024390244 0  1.348284090909091 0.2793064024390244 0  0.34375 0.3032389320646208 0  1.894702181800738 0.1282910975492754 0  2.092797818199262 0.1282910975492754 0  1.85625 0.3075 0  0.8630851210521902 0.286932093388664 0  0.89375 0.1025 0  0.35 0.1090282786671641 0  0 0.3075 0  0 0.1025 0  0.6526217841291382 0.288229645480046 0  0.7562500000000001 0.09660248895515888 0  0.6568633732316684 0.1557582854763441 0  2.099172119769978 0.25625 0  1.002356446954348 0.1010393851523063 0  1.99375 0.08395950269330846 0  1.459960956013612 0.3075 0  1.569025960719943 0.2986889805672169 0  1.03125 0.3278689922742084 0  0.75625 0.3247156761655783 0  1.959375 0.3126371951219512 0  1.749222215368287 0.1025 0  1.275777784631713 0.1025 0  2.2 0.1025 0  1.225938124459196 0.3075 0  1.550777784631713 0.1025 0  1.44375 0.07430640243902442 0  1.16875 0.07430640243902437 0  0.3528655045338512 0.2063263890916129 0  0.5890337614812103 0.08775733857679162 0  0.8504912436891263 0.190072835691683 0  1.899250267340833 0.2229966846119207 0  0.1020898364287272 0.3140258291809757 0  1.766482954545455 0.2934032012195123 0  1.051658316544432 0.2265720188842194 0  0.2 0.3400647632937836 0  1.421109702350723 0.2261157654379721 0  0.4812500000000001 0.41 0  0.4324401666997539 0.3216425986889796 0  0.098916018031319 0.09171660955420841 0  0.9508742791313441 0.2921736960864468 0  2.13125 0 0  2.118919042110979 0.3422084711244843 0  1.30625 0.41 0  0.20625 0 0  1.597888256393107 0.2173787389261347 0  0.4812500000000001 0 0  0.4324082967851086 0.08384041677422771 0  1.829299675393195 0.07400700849299596 0  0.568219932524165 0.3212274660843853 0  1.71875 0.41 0  0.268005226542646 0.08512186835670006 0  1.16875 0.41 0  2.038220665644273 0.332420740103091 0  0.6678017527842831 0.07701763866051195 0  0.89375 0.41 0  0.5111435174287687 0.07335351331957608 0  0.176193934632343 0.0734896648625108 0  0.07390688010811153 0.1697064032433452 0  0.05452951551825875 0.25625 0  0.61875 0.41 0  1.452769549894695 0.1548122580621249 0  1.369219062229598 0.07430640243902442 0  1.30625 0 0  1.720943423819132 0.1714577452753128 0  1.157188124459196 0.205 0  1.094219062229598 0.07430640243902437 0  1.304056576180868 0.1714577452753128 0  1.67579304192913 0.07430640243902437 0  0.2672907219039591 0.3037570723459566 0  1.209670467133757 0.1362100266964769 0  1.58125 0 0  1.03125 0 0  0.06875000000000001 0.41 0  0 0.35875 0  1.58125 0.41 0  1.631724228912893 0.3381867502687533 0  0.8240147050827157 0.1225233169495944 0  1.825608881788174 0.14499488549201 0  1.85625 0 0  1.44375 0 0  1.44375 0.41 0  1.85625 0.41 0  2.13125 0.41 0  0.7562500000000001 0.41 0  0.7562500000000001 0 0  0.89375 0 0  0.34375 0 0  0.34375 0.41 0  0.20625 0.41 0  0.06875000000000001 0 0  1.16875 0 0  1.03125 0.41 0  0.61875 0 0  1.71875 0 0  1.99375 0 0  1.99375 0.41 0  0.3972301426712326 0.2593842555611471 0  1.340625 0.3489494290853124 0  1.134375 0.3489494290853123 0  1.700180620188976 0.3438659752031281 0  0.5003922072260507 0.341765274319271 0  0.6212513815748759 0.2209216137134851 0  0.6885607720119526 0.215393731583638 0  1.033412357328477 0.1612902025713047 0  2.135782184673599 0.07126652247502523 0  1.668441847249787 0.2129203728327609 0  1.295782514339747 0.2378437748815763 0  1.409375 0.3520314716057996 0  2.129248544730567 0.1906135162504124 0  2.060771381434487 0.1989445750470348 0  2.013252586573865 0.1496169464686054 0  1.942766402200229 0.1734448904596831 0  1.895522487186454 0.06076163953489683 0  2.069553871656643 0.06605731020975725 0  0.9281250000000001 0.3539050257418612 0  1.274680914880868 0.3520219391081363 0  0.3030138498135347 0.2488370856812789 0  0.8223773249563684 0.341761430177996 0  0.9018164060227267 0.2326477848736739 0  0.8143027982392851 0.2440265179987191 0  0.7225087161029304 0.2699907246386231 0  1.614713220494657 0.09473434380863296 0  0.378125 0.3566194660323104 0  0.309375 0.3566194660323104 0  1.72990325744076 0.2380068107952482 0  0.6915936999299305 0.3429472631234433 0  0.6268087624932918 0.3466455500035671 0  1.356580098625191 0.2120393231351682 0  0.3060160055995138 0.1590148921620778 0  0.3954648733249218 0.156380553890791 0  2.034370752044885 0.2668681600792073 0  1.51768709249349 0.3426260931494756 0  1.561883724969884 0.1650446847858835 0  1.197344062229598 0.2523725417393646 0  0.9281250000000001 0.05124999999999999 0  1.804085235518364 0.3468178408964637 0  1.817887819205233 0.2589243285818559 0  0.9107805776841645 0.1653834539923287 0  1.905897727272727 0.3485060975609756 0  0 0.05125 0  0.844212276491354 0.0614201194265309 0  0.378125 0.05244637078450034 0  1.008571329007178 0.2705955969954818 0  0.7724048032149464 0.1559079561351474 0  0.7203054377831548 0.04941826955193545 0  1.192836486056382 0.3562350748565544 0  0.5967108020713719 0.1479294686523888 0  1.28257088594801 0.2944411014911587 0  0.7041890234548132 0.1222025174424443 0  1.474860187679412 0.2504218616229368 0  1.406767003493824 0.2829282258560709 0  0.3201325899091991 0.05890121548989159 0  0.5979220912872258 0.2727591995766724 0  1.845656689180403 0.1998310418452388 0  2.144958525570388 0.2909790873294231 0  2.2 0.15375 0  1.57794966442982 0.3540357145964566 0  0.9483181579620558 0.1214693369582054 0  0.0496154796471391 0.333125 0  1.508991196088596 0.1421783375065625 0  0.09776612425612034 0.2204896805326566 0  1.50436820029908 0.06143401634903343 0  1.223857000523521 0.0823554862453532 0  0.2531953886959507 0.3582003209055908 0  1.153316824384777 0.1289850171317837 0  2.148922302309752 0.1258841779285271 0  1.621993280276081 0.2841214267927899 0  1.550118654119087 0.2461998729100966 0  1.327182649291491 0.1216967252533594 0  1.753125 0.04556020050186112 0  1.271875 0.04556020050186116 0  0.9824282234771738 0.05051969257615314 0  1.039510847866381 0.05683351822678641 0  1.94956388244759 0.1180512551534177 0  1.949997712993411 0.04965831614304109 0  1.771961817615021 0.1530278789497521 0  1.909246823951428 0.2812757146784527 0  1.101974016627944 0.2038045618205013 0  0.7906250000000001 0.0444674049654372 0  1.948575539857022 0.2445328248721197 0  1.697271520964565 0.1233917627620729 0  1.065625 0.3689344961371042 0  1.085849084308977 0.3170853572226867 0  0.9840604787624379 0.3582077516409966 0  1.577403511714593 0.05463601888079143 0  0.05622663515370135 0.05493816910862376 0  0.8762396958822678 0.3392249777398821 0  1.751571320346033 0.3651102912045228 0  1.055327852410105 0.111864799513911 0  0.1583785085108421 0.2994699345738728 0  0.1455283439499995 0.3542795598723423 0  2.2 0.35875 0  0.225705107073232 0.05084786997482401 0  0.1455852234589313 0.1166494778469164 0  1.466879772203159 0.3611261772912453 0  1.990280163552011 0.3564754268533217 0  1.17471064520912 0.2990917256188288 0  0.7221925551074015 0.1739659241003985 0  0 0.25625 0  2.2 0.25625 0  2.2 0.05125 0  0 0.15375 0  1.853978576207987 0.35875 0  0.21965520498276 0.1015543880164422 0  1.515638456102889 0.2882700110184686 0  0.09048297387599738 0.3637717362208066 0  2.150453692751374 0.2387066338105111 0  1.323782677156475 0.04897634338873398 0  1.409375 0.03715320121951221 0  1.406484531114799 0.1087852750766809 0  1.134375 0.03715320121951218 0  1.627401732573545 0.04552157221025036 0  0.446875 0.3713289093361426 0  2.045405893604797 0.1105340662939892 0  1.255408269734577 0.1577307500159216 0  2.028125 0.03707597992059326 0  0.04420832937638274 0.128125 0  0.5817551710628505 0.3702615006034757 0  0.1197849154434487 0.2663398672460083 0  1.248258025468107 0.2565907092181813 0  0.1300647302703173 0.0508462728378621 0  0.7738123537510222 0.2761231499240648 0  1.203125 0.0366132337404304 0  0.5444207041612499 0.111205399508622 0  0.8016457771828226 0.1964238426015905 0  2.072662025974815 0.2975086504196739 0  0.4019040438866802 0.2103993403217561 0  0.4677372330974851 0.04827477407630658 0  0.8677218578847617 0.1432970430140788 0  1.058011122005847 0.2758866204059919 0  0.4429405887974043 0.2746184809910084 0  0.5843750000000001 0.03726989681835222 0  0.6318596133730142 0.1128692182767254 0  0.4862628454464408 0.2957029785303028 0  0.7805186758662764 0.3673578380827891 0  1.887722846421017 0.1760882698830035 0  0.3498893058880703 0.256189258793856 0  1.472640588990488 0.1118278026240017 0  1.865937103925594 0.2604137786483804 0
[...]
<PointData  Vectors="f_37"> 
<DataArray  type="Float64"  Name="f_37"  NumberOfComponents="3" format="ascii">-6.1180193409168564e-07 2.0494137155676945e-08 0.0000000000000000e+00  3.7297259786637842e-07 -2.9660734829352542e-08 0.0000000000000000e+00  -2.6643572296189262e-07 -1.0521436752997593e-08 0.0000000000000000e+00  9.6175266081686381e-07 -7.3119863123246753e-09 0.0000000000000000e+00  -9.8939223294380052e-07 1.2034484154142056e-07 0.0000000000000000e+00  -7.7698677338495500e-07 1.4971450511100051e-07 0.0000000000000000e+00  -1.6617600150447998e-06 3.1583625576478088e-07 0.0000000000000000e+00  1.1880071524129353e-06 2.7505302402573898e-07 0.0000000000000000e+00  2.8743421417976747e-06 -4.9376988576205877e-07 0.0000000000000000e+00  -9.7341283107742763e-07 8.3173415126143663e-08 0.0000000000000000e+00  -1.7394089483540671e-06 1.1144065001529692e-06 0.0000000000000000e+00  6.9823918741123651e-07 2.2255687865417711e-06 0.0000000000000000e+00  -3.7363252772236025e-06 -1.3006678052455770e-06 0.0000000000000000e+00  -3.5559370896827156e-06 -8.5909073156059214e-07 0.0000000000000000e+00  -1.8953198741465047e-06 4.0005733301125062e-08 0.0000000000000000e+00  -1.4441704865913005e-06 3.4938810928676380e-07 0.0000000000000000e+00  -3.9359500401059267e-06 -2.1892499830880553e-07 0.0000000000000000e+00  -3.1277737021774657e-06 -1.2539443903095106e-07 0.0000000000000000e+00  -1.9518780855746855e-06 -6.8940861128216417e-08 0.0000000000000000e+00  -1.4267787617621153e-06 -3.0834415050742010e-07 0.0000000000000000e+00  -1.0771373817406119e-06 -1.3102058571981762e-07 0.0000000000000000e+00  -1.1345155632702032e-06 -6.9342531715593055e-08 0.0000000000000000e+00  -5.2933822671201984e-07 1.9695875365853346e-07 0.0000000000000000e+00  -2.4781729105884817e-07 1.0804852708674456e-07 0.0000000000000000e+00  -1.1281145547538169e-06 1.4863377810624961e-07 0.0000000000000000e+00  1.5000025239902306e+00 1.9088109948517146e-08 0.0000000000000000e+00  -7.9525433097613089e-07 1.2991048424235708e-07 0.0000000000000000e+00  -2.2026635609709548e-06 -7.9009998790915542e-08 0.0000000000000000e+00  -9.9632241881905196e-07 5.3658943496980961e-08 0.0000000000000000e+00  -2.6419168661274277e-06 9.2298531945112815e-08 0.0000000000000000e+00  -1.0668097482807684e-06 -2.5584815201406321e-08 0.0000000000000000e+00  -5.3688191778000241e-08 -8.7174180834808252e-08 0.0000000000000000e+00  5.1876858794922841e-08 -5.4772535065384714e-08 0.0000000000000000e+00  2.2207372442529179e-06 1.9677880070704177e-08 0.0000000000000000e+00  5.1938587503912716e-07 1.3874606877374756e-08 0.0000000000000000e+00  3.2166134236846990e-07 2.8368676314688671e-09 0.0000000000000000e+00  -6.7843048871084338e-08 4.5911940220995729e-08 0.0000000000000000e+00  -1.0339953559908125e-07 4.2499487692017006e-08 0.0000000000000000e+00  -2.8238553043983916e-06 -7.2851780071517181e-08 0.0000000000000000e+00  1.0392993382984430e+00 7.6282805980565751e-03 0.0000000000000000e+00  1.1151744044914564e+00 1.2635943690725722e-02 0.0000000000000000e+00  6.0738927326392744e-01 -9.6436557549364375e-04 0.0000000000000000e+00  9.0579699125193192e-01 -2.1042392971833468e-02 0.0000000000000000e+00  1.2061314462014654e+00 7.2109081745347506e-03 0.0000000000000000e+00  2.2491533114157841e-01 -4.6029935477045973e-02 0.0000000000000000e+00  1.2118280825672227e+00 -1.2595566300498837e-02 0.0000000000000000e+00  -1.7574902582779951e-06 1.4514679188348491e-10 0.0000000000000000e+00  -1.5204437444169716e-06 -4.5227242749449818e-08 0.0000000000000000e+00  -7.6729105174378904e-07 -5.3033390359013771e-08 0.0000000000000000e+00  1.2728764652305171e+00 2.2881133812161824e-05 0.0000000000000000e+00  -3.4853625199044878e-07 6.2058519322782381e-08 0.0000000000000000e+00  -1.2351223900401048e-06 2.4750129222937660e-08 0.0000000000000000e+00  1.3676189939787935e+00 1.8405932324718221e-02 0.0000000000000000e+00  1.2864673986345971e-06 5.1634427913219954e-08 0.0000000000000000e+00  -2.2454618937243687e-07 3.7644497933686270e-08 0.0000000000000000e+00  1.2985611078019964e-06 1.0506495652780066e-07 0.0000000000000000e+00  -5.5427161625407292e-07 -6.6561605522144163e-08 0.0000000000000000e+00  -7.9490060506270942e-07 -4.4386775329922420e-08 0.0000000000000000e+00  -7.1762484618990589e-07 -2.3320295043564265e-08 0.0000000000000000e+00  2.9971084764685696e-07 6.5135669331039242e-08 0.0000000000000000e+00  6.0665822807777894e-07 1.3422656604584941e-07 0.0000000000000000e+00  -2.7490187932559481e-06 1.0995672575121620e-07 0.0000000000000000e+00  7.0626403961193304e-07 -9.5783715959909621e-08 0.0000000000000000e+00  1.3719846978220180e+00 2.1714158243960609e-02 0.0000000000000000e+00  -3.7816886418806054e-07 -1.2781730538125483e-07 0.0000000000000000e+00  1.3202570188111311e+00 1.0127550608491054e-03 0.0000000000000000e+00  1.5851677475761836e+00 -2.7183674778487352e-02 0.0000000000000000e+00  1.4306831356609828e+00 1.4905745723839162e-03 0.0000000000000000e+00  1.5077641185632034e+00 -3.3059656584864588e-04 0.0000000000000000e+00  1.9607239081521066e+00 2.9764288711891532e-02 0.0000000000000000e+00  1.3373637498295328e+00 6.5389117551317997e-03 0.0000000000000000e+00  1.3381039287156447e+00 4.1704082630486510e-03 0.0000000000000000e+00  1.3171637043809170e+00 -4.2554086119038735e-03 0.0000000000000000e+00  1.6607765808425508e+00 -1.0336640167326162e-01 0.0000000000000000e+00  1.5588546793507954e+00 7.8924422613657758e-02 0.0000000000000000e+00  1.8647225497005491e+00 9.6545297311586131e-03 0.0000000000000000e+00  1.1249986003063732e+00 -1.7120825184201609e-07 0.0000000000000000e+00  1.1250027127281776e+00 1.7334030440437880e-08 0.0000000000000000e+00  1.7711452791072002e+00 -1.6458063717236718e-01 0.0000000000000000e+00  1.6456353629757972e+00 1.3699019891409361e-01 0.0000000000000000e+00  7.3889934179835526e-01 1.0668260587153103e-01 0.0000000000000000e+00  1.3540268760678082e+00 -9.7635157395364776e-03 0.0000000000000000e+00  1.4766634603612308e+00 3.2147389281240210e-02 0.0000000000000000e+00  1.1179892141473655e+00 4.3369798272179980e-04 0.0000000000000000e+00  1.3729582407331455e+00 -5.2202819681224028e-03 0.0000000000000000e+00  1.4051269954423107e+00 -7.0299749216043666e-04 0.0000000000000000e+00  1.2475362307600693e+00 -2.0707994197695638e-02 0.0000000000000000e+00  1.5492969590494627e+00 -1.2226938904371142e-01 0.0000000000000000e+00  1.2535769612633541e+00 -4.9777301067578184e-04 0.0000000000000000e+00  1.2958640456896990e+00 3.5491243023867362e-03 0.0000000000000000e+00  1.4004697262646957e+00 6.7468241925517829e-03 0.0000000000000000e+00  1.2351666384661002e+00 4.0042156593556666e-03 0.0000000000000000e+00  1.4087220202611983e+00 6.7646343844530456e-04 0.0000000000000000e+00  1.3298230550028485e+00 3.2616259544526776e-04 0.0000000000000000e+00  1.0542190796639910e+00 -6.9620175662732367e-03 0.0000000000000000e+00  1.0941076920280373e+00 -1.2811370587791217e-03 0.0000000000000000e+00  -3.3033693952837700e-01 -1.5257738675083619e-02 0.0000000000000000e+00  1.7791275527240527e+00 1.2348703163205298e-01 0.0000000000000000e+00  4.1600581369746115e-01 1.8823600356193824e-02 0.0000000000000000e+00  1.2041888167541410e+00 1.5305568870757902e-02 0.0000000000000000e+00  1.1818573182615051e+00 2.5546380096220650e-01 0.0000000000000000e+00  1.3946022724687812e+00 9.6700745328287682e-04 0.0000000000000000e+00  9.9236180971883925e-01 -2.0545130242772592e-02 0.0000000000000000e+00  1.3810500535834249e+00 2.1762003837824914e-01 0.0000000000000000e+00  1.1106181370679409e+00 8.4718904329704296e-03 0.0000000000000000e+00  8.1989180475581417e-07 -1.2950004447294735e-08 0.0000000000000000e+00  1.8390964166467163e+00 -6.0969147979696325e-02 0.0000000000000000e+00  1.1435659868679291e+00 -2.5637401532951809e-01 0.0000000000000000e+00  1.6154520132664600e+00 -5.7006509903194211e-02 0.0000000000000000e+00  -8.0417192416477170e-07 -3.6632359742052774e-08 0.0000000000000000e+00  9.5557700702363113e-01 1.7550932276103092e-03 0.0000000000000000e+00  -2.4931045407386655e-06 -1.5531047055482573e-07 0.0000000000000000e+00  -6.9114157921790434e-06 2.7164363536893184e-07 0.0000000000000000e+00  1.1317856575474357e+00 -2.1695092604160911e-02 0.0000000000000000e+00  1.0071069072751390e-06 -2.7700907337170012e-08 0.0000000000000000e+00  1.8259957419076511e+00 7.8388448405737443e-02 0.0000000000000000e+00  1.0229184552014012e+00 -2.1921508806161463e-03 0.0000000000000000e+00  1.7926505292753003e+00 -1.1335884093553049e-01 0.0000000000000000e+00  -2.7966527089494098e-06 -6.2784710681589859e-08 0.0000000000000000e+00  1.7978877916898452e+00 -1.4133441855593143e-01 0.0000000000000000e+00  -2.4758329395973601e-08 4.8745027585806970e-08 0.0000000000000000e+00  1.0607388449159165e+00 3.7912848408475420e-03 0.0000000000000000e+00  1.6012738508645976e+00 1.2870388947542133e-01 0.0000000000000000e+00  -2.3999179280118867e-06 -2.4621850703759659e-08 0.0000000000000000e+00  1.7220271614755116e+00 7.4909085032150269e-02 0.0000000000000000e+00  1.3596383956140372e+00 -3.0229869250704544e-01 0.0000000000000000e+00  1.3399806894356083e+00 -1.2282354867431960e-01 0.0000000000000000e+00  1.3729754064126345e+00 1.2467379027452537e-01 0.0000000000000000e+00  -1.3051848864263035e-07 1.7935116580004625e-08 0.0000000000000000e+00  1.2873986110405728e+00 1.7014530353975404e-02 0.0000000000000000e+00  1.0578889455746334e+00 -6.3135099648265625e-03 0.0000000000000000e+00  1.2446932464445551e-06 -1.0071629617695185e-07 0.0000000000000000e+00  1.2097656227392688e+00 1.9203936440499001e-03 0.0000000000000000e+00  8.5215475656937401e-01 -1.3569608823538769e-02 0.0000000000000000e+00  1.1100344520389169e+00 1.6655643561660499e-04 0.0000000000000000e+00  1.1361101503003348e+00 1.0235170298084727e-02 0.0000000000000000e+00  1.0383825638898636e+00 -4.7999051584295967e-04 0.0000000000000000e+00  1.9202982638074211e+00 1.8454355017777596e-01 0.0000000000000000e+00  1.4646188195381002e+00 1.1572035819839314e-02 0.0000000000000000e+00  2.3084591932665940e-06 -3.5868516475241367e-09 0.0000000000000000e+00  2.7461508497607880e-07 2.3123310401335421e-08 0.0000000000000000e+00  -7.9957414248694436e-07 -5.6353038257799011e-08 0.0000000000000000e+00  6.5625203843973023e-01 1.6507764718921724e-08 0.0000000000000000e+00  -2.4703038979070985e-07 -3.6846339762980184e-09 0.0000000000000000e+00  1.0063241020560705e+00 7.7371550946110030e-03 0.0000000000000000e+00  1.6270634599725131e+00 1.2358046850748480e-01 0.0000000000000000e+00  1.3422445942220493e+00 1.5874736322020737e-02 0.0000000000000000e+00  -4.4678354241243762e-07 3.1356945776359595e-08 0.0000000000000000e+00  -3.3930532881732679e-06 1.2562388698516427e-07 0.0000000000000000e+00  -9.6509949856806260e-08 6.4281567065072549e-08 0.0000000000000000e+00  -1.1435720165250432e-06 3.7147565828391486e-08 0.0000000000000000e+00  -1.0634625672011935e-06 -1.5589466101486314e-08 0.0000000000000000e+00  -2.0501076158963246e-07 5.0488326112061069e-08 0.0000000000000000e+00  -2.6913079115932225e-06 -1.3276709531231120e-07 0.0000000000000000e+00  -7.5043411540082428e-07 -8.6659411452159095e-08 0.0000000000000000e+00  2.0177641677640852e-07 -3.7459991473102616e-09 0.0000000000000000e+00  3.6304368843672324e-07 1.5798091735340363e-08 0.0000000000000000e+00  1.1736905308903642e-06 -8.5979706559480057e-08 0.0000000000000000e+00  -8.2414053649271065e-07 1.4450004809784124e-07 0.0000000000000000e+00  -2.0247825375117927e-07 4.6167448599663165e-08 0.0000000000000000e+00  -1.6509171249159031e-06 8.2685243505019370e-08 0.0000000000000000e+00  -2.6799460338002369e-06 -1.7487561332579329e-07 0.0000000000000000e+00  -2.3325868493204270e-06 -2.2313738818229317e-08 0.0000000000000000e+00  -1.2587528643980790e-06 2.0746945836331020e-08 0.0000000000000000e+00  -2.2958470231007886e-06 -1.6813464267756222e-08 0.0000000000000000e+00  7.2400115421064737e-01 -4.3565451679758345e-02 0.0000000000000000e+00  8.6455448800168977e-01 5.1173930636393607e-03 0.0000000000000000e+00  8.7060055729371966e-01 1.0419819696350615e-04 0.0000000000000000e+00  9.3910440514174476e-01 4.5710813352434817e-03 0.0000000000000000e+00  1.6559881012715816e+00 -6.9575855732590106e-02 0.0000000000000000e+00  5.9820457688371607e-03 -9.3034864532920859e-03 0.0000000000000000e+00  4.0276183304380660e-02 -3.1458826440706043e-02 0.0000000000000000e+00  1.1962676437850388e+00 4.0332485199937179e-02 0.0000000000000000e+00  9.7692444223130626e-01 8.0944250121327125e-04 0.0000000000000000e+00  1.1087878456087181e+00 -2.5741818880851957e-02 0.0000000000000000e+00  1.2145427738261403e+00 -1.4832654856769625e-02 0.0000000000000000e+00  8.1733288318165320e-01 2.5125099288912022e-03 0.0000000000000000e+00  1.2003418199120350e+00 -1.5097250994376627e-02 0.0000000000000000e+00  1.1789571998115282e+00 -2.5506690908571966e-02 0.0000000000000000e+00  1.2759226204976899e+00 -3.6288509325490491e-03 0.0000000000000000e+00  1.1863185028207013e+00 1.3863305375508998e-02 0.0000000000000000e+00  8.6663099185545067e-01 -1.3149838643323696e-03 0.0000000000000000e+00  9.2382778370899143e-01 3.0233913745259552e-04 0.0000000000000000e+00  8.8170992881779875e-01 -2.0966801532735273e-02 0.0000000000000000e+00  8.1488827389254281e-01 7.2828023296096786e-03 0.0000000000000000e+00  2.3173200962439680e-01 5.1320445031325775e-02 0.0000000000000000e+00  1.2275879754546728e+00 -7.0285512839362602e-02 0.0000000000000000e+00  9.4510728515907771e-01 -6.2554012978306539e-02 0.0000000000000000e+00  1.0962929044088443e+00 -1.1336607735365488e-01 0.0000000000000000e+00  1.5560655010067408e+00 -1.6836152998585213e-01 0.0000000000000000e+00  1.2658773018367235e+00 2.7720846388061189e-03 0.0000000000000000e+00  1.5337107450934486e+00 -2.6249043434503710e-02 0.0000000000000000e+00  1.4842351084997432e+00 3.2100642510853178e-02 0.0000000000000000e+00  1.2351106281951332e+00 -9.1044014117341501e-03 0.0000000000000000e+00  1.4297515559146665e+00 -1.0789981695170366e-01 0.0000000000000000e+00  1.4825525646538589e+00 -1.0203205719545524e-01 0.0000000000000000e+00  9.8313884130171225e-01 3.4781786878288552e-03 0.0000000000000000e+00  8.0041179401708226e-02 -5.4841906566239780e-02 0.0000000000000000e+00  2.8542697390201421e-01 2.3723539095843859e-02 0.0000000000000000e+00  1.4006278483777455e+00 -9.6497324847686188e-03 0.0000000000000000e+00  9.4582144580366045e-01 3.9595644838377707e-03 0.0000000000000000e+00  1.1772778342713313e+00 2.4207064456755020e-03 0.0000000000000000e+00  1.4151433813781404e+00 -2.6013671310012896e-02 0.0000000000000000e+00  7.8776505924681794e-01 1.8046806191344380e-02 0.0000000000000000e+00  9.0005417560308143e-01 7.9503232416317947e-04 0.0000000000000000e+00  1.3615331491264244e+00 3.3053864422575422e-03 0.0000000000000000e+00  1.0371375500846045e+00 6.5258594582692356e-02 0.0000000000000000e+00  8.7393055094951733e-01 1.5457509245404499e-03 0.0000000000000000e+00  6.5624905606227257e-01 8.6561074007825202e-08 0.0000000000000000e+00  1.0829486895903744e+00 5.3327221741493305e-02 0.0000000000000000e+00  1.5679389054310651e+00 3.7306004818516911e-02 0.0000000000000000e+00  1.5867821224260963e+00 -4.4880585842865584e-02 0.0000000000000000e+00  1.0356124635470070e+00 1.1902636730152538e-01 0.0000000000000000e+00  1.0721986225117877e+00 7.0387212730341167e-02 0.0000000000000000e+00  7.4529466966365743e-01 5.2894718515642735e-03 0.0000000000000000e+00  8.0598888852684003e-01 8.8562031706457434e-02 0.0000000000000000e+00  1.4858334846914112e+00 2.5726173154000083e-03 0.0000000000000000e+00  1.6512071510774420e+00 1.6798801101910502e-01 0.0000000000000000e+00  1.3708566843931156e+00 -8.5401389380686255e-03 0.0000000000000000e+00  1.5035326287970705e+00 -4.9543335558304520e-03 0.0000000000000000e+00  1.6077993353071269e+00 -1.7217582745416449e-02 0.0000000000000000e+00  1.4990042873255278e+00 -1.3662914260610673e-01 0.0000000000000000e+00  1.1312388352121929e+00 2.8079781843270750e-02 0.0000000000000000e+00  1.3467547183166739e+00 9.0966428919397586e-04 0.0000000000000000e+00  1.3230367202972495e+00 1.3788748145337615e-02 0.0000000000000000e+00  7.9063994800906123e-01 5.9192346818500241e-03 0.0000000000000000e+00  1.5886946692044663e+00 6.5063463319758291e-02 0.0000000000000000e+00  9.4149805096907158e-01 9.3610081190351357e-02 0.0000000000000000e+00  1.3488186316545860e+00 6.7502560627019795e-03 0.0000000000000000e+00  1.2233609399294645e+00 1.6056779526537199e-01 0.0000000000000000e+00  8.8168625364699171e-01 -4.0275132036560989e-03 0.0000000000000000e+00  1.1971135333632954e+00 1.4417906997655659e-03 0.0000000000000000e+00  1.3609508613333230e+00 9.6638298042155610e-02 0.0000000000000000e+00  1.5026177741222835e+00 1.0578303156509757e-02 0.0000000000000000e+00  1.3388459021110237e+00 9.0837736660515332e-03 0.0000000000000000e+00  1.4460656449261442e+00 -2.6534816892627476e-04 0.0000000000000000e+00  1.3532377783881619e+00 -1.6772403487474604e-02 0.0000000000000000e+00  1.4735204406269580e+00 1.1234606781668478e-02 0.0000000000000000e+00  6.6292479408905602e-01 -1.9460066423912274e-03 0.0000000000000000e+00  6.3051401551828168e-01 -3.4212883890162916e-03 0.0000000000000000e+00  7.3869600718367789e-01 7.1440254022353761e-03 0.0000000000000000e+00  8.3229650161484325e-01 1.0560643201953149e-03 0.0000000000000000e+00  1.3164257346045041e+00 2.0994345854488576e-03 0.0000000000000000e+00  7.2387813140593171e-01 -1.0104721226060710e-03 0.0000000000000000e+00  1.3271690830848197e+00 1.6304703921089181e-02 0.0000000000000000e+00  1.4279193763547720e+00 -8.7372575420488468e-03 0.0000000000000000e+00  7.9470451305187262e-01 -5.5208522182870787e-04 0.0000000000000000e+00  8.2284674339168873e-01 4.1879170020256401e-02 0.0000000000000000e+00  1.3439328868117757e+00 -8.7644308443620058e-03 0.0000000000000000e+00  1.3960179375957240e+00 9.3510054378915745e-03 0.0000000000000000e+00  5.4705000601606479e-01 -7.0473094171953903e-04 0.0000000000000000e+00  1.3616716708383114e+00 -1.8132985796789215e-02 0.0000000000000000e+00  7.6210708554279760e-01 -9.6093653713506724e-03 0.0000000000000000e+00  7.8653715393267520e-01 -1.9073703331128255e-03 0.0000000000000000e+00  7.3881181456912759e-01 -7.9180908367852090e-02 0.0000000000000000e+00  1.1971134062148054e+00 -5.1684958458436216e-02 0.0000000000000000e+00  6.5306361245891464e-01 1.7953228935600897e-03 0.0000000000000000e+00  1.5194672500272324e+00 2.0014662370761667e-02 0.0000000000000000e+00  1.5283812329140791e+00 4.7608277415696637e-01 0.0000000000000000e+00  1.0046067483833632e+00 1.8217647399858961e-01 0.0000000000000000e+00  7.5276713982515719e-01 8.4681068246158413e-04 0.0000000000000000e+00  1.3189671142091532e+00 -1.2563464136245481e-01 0.0000000000000000e+00  1.4489150916965532e+00 -5.4609917805684016e-01 0.0000000000000000e+00  6.8315980250277086e-01 2.4573123451532303e-03 0.0000000000000000e+00  7.7503104690582114e-01 2.6013346213007871e-03 0.0000000000000000e+00  1.4938340639956500e+00 -1.0902680218242134e-02 0.0000000000000000e+00  3.7895286816739604e-01 7.3336453454374784e-02 0.0000000000000000e+00  1.4062539975253714e+00 1.2610736705000892e-07 0.0000000000000000e+00  1.3283050218791008e+00 2.2030417688598176e-03 0.0000000000000000e+00  7.4153458497158220e-01 -3.4780748528263292e-04 0.0000000000000000e+00  1.4062505961290137e+00 3.9620065727401247e-08 0.0000000000000000e+00  7.4111098094458694e-01 1.0135222249802022e-03 0.0000000000000000e+00  1.8372696847141479e+00 -3.2980645655438628e-01 0.0000000000000000e+00  1.4755245712903042e+00 -9.4438214324327075e-03 0.0000000000000000e+00  7.1441914464209133e-01 9.8563141009017863e-02 0.0000000000000000e+00  1.2739242267086022e+00 -1.0034752334502016e-02 0.0000000000000000e+00  6.8561059542191238e-01 -4.6915447176986893e-03 0.0000000000000000e+00  5.2119574525734280e-01 -4.3783882719379994e-03 0.0000000000000000e+00  1.3943754357235632e+00 -6.9835789469703026e-04 0.0000000000000000e+00  4.9156204178895962e-01 -4.1262359047725553e-03 0.0000000000000000e+00  6.5819743726207058e-01 -1.5691335634657984e-03 0.0000000000000000e+00  1.3073513816632347e+00 -4.416