<?xml version="1.0"?>
<VTKFile type="UnstructuredGrid"  version="0.1"  >
<UnstructuredGrid>
<Piece  NumberOfPoints="2426" NumberOfCells="4534">
<Points>
<DataArray  type="Float64"  NumberOfComponents="3"  format="ascii">0 0.41 0  0 0 0  2.2 0 0  2.2 0.41 0  0.2404508497187474 0.2293892626146237 0  0.25 0.2 0  0.2404508497187474 0.1706107373853764 0  0.2154508497187474 0.1524471741852423 0  0.1845491502812526 0.1524471741852423 0  0.1595491502812526 0.1706107373853764 0  0.15 0.2 0  0.1595491502812526 0.2293892626146237 0  0.1845491502812527 0.2475528258147577 0  0.2154508497187474 0.2475528258147577 0  0.5404508497187474 0.2293892626146237 0  0.55 0.2 0  0.5404508497187474 0.1706107373853764 0  0.5154508497187473 0.1524471741852423 0  0.4845491502812526 0.1524471741852423 0  0.4595491502812526 0.1706107373853764 0  0.45 0.2 0  0.4595491502812526 0.2293892626146237 0  0.4845491502812526 0.2475528258147577 0  0.5154508497187473 0.2475528258147577 0  1.1 0 0  0 0.205 0  1.1 0.41 0  0.55 0 0  0.55 0.41 0  0.275 0 0  0.275 0.41 0  1.65 0.41 0  1.65 0 0  1.375 0 0  1.375 0.41 0  1.925 0 0  1.925 0.41 0  0.8250000000000001 0.41 0  0.8250000000000001 0 0  1.5125 0.205 0  1.7875 0.205 0  0.9625000000000001 0.205 0  1.2375 0.205 0  2.2 0.205 0  0.7560964076246335 0.2151713709677419 0  1.99375 0.2152743902439024 0  2.0625 0 0  0.6875 0 0  2.0625 0.41 0  2.2 0.3075 0  0.6875 0.41 0  1.7875 0.41 0  1.375 0.1486128048780488 0  1.5125 0 0  1.7875 0 0  1.5125 0.41 0  0.9625000000000001 0 0  0.9625000000000001 0.41 0  0.4125 0 0  0.1375 0 0  0.1375 0.41 0  0.4125 0.41 0  1.2375 0 0  1.1 0.1486128048780487 0  1.2375 0.41 0  1.65 0.1486128048780487 0  1.126715909090909 0.2793064024390244 0  1.676715909090909 0.2793064024390244 0  1.348284090909091 0.2793064024390244 0  0.34375 0.3032389320646208 0  1.894702181800738 0.1282910975492754 0  2.092797818199262 0.1282910975492754 0  1.85625 0.3075 0  0.8630851210521902 0.286932093388664 0  0.89375 0.1025 0  0.35 0.1090282786671641 0  0 0.3075 0  0 0.1025 0  0.6526217841291382 0.288229645480046 0  0.7562500000000001 0.09660248895515888 0  0.6568633732316684 0.1557582854763441 0  2.099172119769978 0.25625 0  1.002356446954348 0.1010393851523063 0  1.99375 0.08395950269330846 0  1.459960956013612 0.3075 0  1.569025960719943 0.2986889805672169 0  1.03125 0.3278689922742084 0  0.75625 0.3247156761655783 0  1.959375 0.3126371951219512 0  1.749222215368287 0.1025 0  1.275777784631713 0.1025 0  2.2 0.1025 0  1.225938124459196 0.3075 0  1.550777784631713 0.1025 0  1.44375 0.07430640243902442 0  1.16875 0.07430640243902437 0  0.3528655045338512 0.2063263890916129 0  0.5890337614812103 0.08775733857679162 0  0.8504912436891263 0.190072835691683 0  1.899250267340833 0.2229966846119207 0  0.1020898364287272 0.3140258291809757 0  1.766482954545455 0.2934032012195123 0  1.051658316544432 0.2265720188842194 0  0.2 0.3400647632937836 0  1.421109702350723 0.2261157654379721 0  0.4812500000000001 0.41 0  0.4324401666997539 0.3216425986889796 0  0.098916018031319 0.09171660955420841 0  0.9508742791313441 0.2921736960864468 0  2.13125 0 0  2.118919042110979 0.3422084711244843 0  1.30625 0.41 0  0.20625 0 0  1.597888256393107 0.2173787389261347 0  0.4812500000000001 0 0  0.4324082967851086 0.08384041677422771 0  1.829299675393195 0.07400700849299596 0  0.568219932524165 0.3212274660843853 0  1.71875 0.41 0  0.268005226542646 0.08512186835670006 0  1.16875 0.41 0  2.038220665644273 0.332420740103091 0  0.6678017527842831 0.07701763866051195 0  0.89375 0.41 0  0.5111435174287687 0.07335351331957608 0  0.176193934632343 0.0734896648625108 0  0.07390688010811153 0.1697064032433452 0  0.05452951551825875 0.25625 0  0.61875 0.41 0  1.452769549894695 0.1548122580621249 0  1.369219062229598 0.07430640243902442 0  1.30625 0 0  1.720943423819132 0.1714577452753128 0  1.157188124459196 0.205 0  1.094219062229598 0.07430640243902437 0  1.304056576180868 0.1714577452753128 0  1.67579304192913 0.07430640243902437 0  0.2672907219039591 0.3037570723459566 0  1.209670467133757 0.1362100266964769 0  1.58125 0 0  1.03125 0 0  0.06875000000000001 0.41 0  0 0.35875 0  1.58125 0.41 0  1.631724228912893 0.3381867502687533 0  0.8240147050827157 0.1225233169495944 0  1.825608881788174 0.14499488549201 0  1.85625 0 0  1.44375 0 0  1.44375 0.41 0  1.85625 0.41 0  2.13125 0.41 0  0.7562500000000001 0.41 0  0.7562500000000001 0 0  0.89375 0 0  0.34375 0 0  0.34375 0.41 0  0.20625 0.41 0  0.06875000000000001 0 0  1.16875 0 0  1.03125 0.41 0  0.61875 0 0  1.71875 0 0  1.99375 0 0  1.99375 0.41 0  0.3972301426712326 0.2593842555611471 0  1.340625 0.3489494290853124 0  1.134375 0.3489494290853123 0  1.700180620188976 0.3438659752031281 0  0.5003922072260507 0.341765274319271 0  0.6212513815748759 0.2209216137134851 0  0.6885607720119526 0.215393731583638 0  1.033412357328477 0.1612902025713047 0  2.135782184673599 0.07126652247502523 0  1.668441847249787 0.2129203728327609 0  1.295782514339747 0.2378437748815763 0  1.409375 0.3520314716057996 0  2.129248544730567 0.1906135162504124 0  2.060771381434487 0.1989445750470348 0  2.013252586573865 0.1496169464686054 0  1.942766402200229 0.1734448904596831 0  1.895522487186454 0.06076163953489683 0  2.069553871656643 0.06605731020975725 0  0.9281250000000001 0.3539050257418612 0  1.274680914880868 0.3520219391081363 0  0.3030138498135347 0.2488370856812789 0  0.8223773249563684 0.341761430177996 0  0.9018164060227267 0.2326477848736739 0  0.8143027982392851 0.2440265179987191 0  0.7225087161029304 0.2699907246386231 0  1.614713220494657 0.09473434380863296 0  0.378125 0.3566194660323104 0  0.309375 0.3566194660323104 0  1.72990325744076 0.2380068107952482 0  0.6915936999299305 0.3429472631234433 0  0.6268087624932918 0.3466455500035671 0  1.356580098625191 0.2120393231351682 0  0.3060160055995138 0.1590148921620778 0  0.3954648733249218 0.156380553890791 0  2.034370752044885 0.2668681600792073 0  1.51768709249349 0.3426260931494756 0  1.561883724969884 0.1650446847858835 0  1.197344062229598 0.2523725417393646 0  0.9281250000000001 0.05124999999999999 0  1.804085235518364 0.3468178408964637 0  1.817887819205233 0.2589243285818559 0  0.9107805776841645 0.1653834539923287 0  1.905897727272727 0.3485060975609756 0  0 0.05125 0  0.844212276491354 0.0614201194265309 0  0.378125 0.05244637078450034 0  1.008571329007178 0.2705955969954818 0  0.7724048032149464 0.1559079561351474 0  0.7203054377831548 0.04941826955193545 0  1.192836486056382 0.3562350748565544 0  0.5967108020713719 0.1479294686523888 0  1.28257088594801 0.2944411014911587 0  0.7041890234548132 0.1222025174424443 0  1.474860187679412 0.2504218616229368 0  1.406767003493824 0.2829282258560709 0  0.3201325899091991 0.05890121548989159 0  0.5979220912872258 0.2727591995766724 0  1.845656689180403 0.1998310418452388 0  2.144958525570388 0.2909790873294231 0  2.2 0.15375 0  1.57794966442982 0.3540357145964566 0  0.9483181579620558 0.1214693369582054 0  0.0496154796471391 0.333125 0  1.508991196088596 0.1421783375065625 0  0.09776612425612034 0.2204896805326566 0  1.50436820029908 0.06143401634903343 0  1.223857000523521 0.0823554862453532 0  0.2531953886959507 0.3582003209055908 0  1.153316824384777 0.1289850171317837 0  2.148922302309752 0.1258841779285271 0  1.621993280276081 0.2841214267927899 0  1.550118654119087 0.2461998729100966 0  1.327182649291491 0.1216967252533594 0  1.753125 0.04556020050186112 0  1.271875 0.04556020050186116 0  0.9824282234771738 0.05051969257615314 0  1.039510847866381 0.05683351822678641 0  1.94956388244759 0.1180512551534177 0  1.949997712993411 0.04965831614304109 0  1.771961817615021 0.1530278789497521 0  1.909246823951428 0.2812757146784527 0  1.101974016627944 0.2038045618205013 0  0.7906250000000001 0.0444674049654372 0  1.948575539857022 0.2445328248721197 0  1.697271520964565 0.1233917627620729 0  1.065625 0.3689344961371042 0  1.085849084308977 0.3170853572226867 0  0.9840604787624379 0.3582077516409966 0  1.577403511714593 0.05463601888079143 0  0.05622663515370135 0.05493816910862376 0  0.8762396958822678 0.3392249777398821 0  1.751571320346033 0.3651102912045228 0  1.055327852410105 0.111864799513911 0  0.1583785085108421 0.2994699345738728 0  0.1455283439499995 0.3542795598723423 0  2.2 0.35875 0  0.225705107073232 0.05084786997482401 0  0.1455852234589313 0.1166494778469164 0  1.466879772203159 0.3611261772912453 0  1.990280163552011 0.3564754268533217 0  1.17471064520912 0.2990917256188288 0  0.7221925551074015 0.1739659241003985 0  0 0.25625 0  2.2 0.25625 0  2.2 0.05125 0  0 0.15375 0  1.853978576207987 0.35875 0  0.21965520498276 0.1015543880164422 0  1.515638456102889 0.2882700110184686 0  0.09048297387599738 0.3637717362208066 0  2.150453692751374 0.2387066338105111 0  1.323782677156475 0.04897634338873398 0  1.409375 0.03715320121951221 0  1.406484531114799 0.1087852750766809 0  1.134375 0.03715320121951218 0  1.627401732573545 0.04552157221025036 0  0.446875 0.3713289093361426 0  2.045405893604797 0.1105340662939892 0  1.255408269734577 0.1577307500159216 0  2.028125 0.03707597992059326 0  0.04420832937638274 0.128125 0  0.5817551710628505 0.3702615006034757 0  0.1197849154434487 0.2663398672460083 0  1.248258025468107 0.2565907092181813 0  0.1300647302703173 0.0508462728378621 0  0.7738123537510222 0.2761231499240648 0  1.203125 0.0366132337404304 0  0.5444207041612499 0.111205399508622 0  0.8016457771828226 0.1964238426015905 0  2.072662025974815 0.2975086504196739 0  0.4019040438866802 0.2103993403217561 0  0.4677372330974851 0.04827477407630658 0  0.8677218578847617 0.1432970430140788 0  1.058011122005847 0.2758866204059919 0  0.4429405887974043 0.2746184809910084 0  0.5843750000000001 0.03726989681835222 0  0.6318596133730142 0.1128692182767254 0  0.4862628454464408 0.2957029785303028 0  0.7805186758662764 0.3673578380827891 0  1.887722846421017 0.1760882698830035 0  0.3498893058880703 0.256189258793856 0  1.472640588990488 0.1118278026240017 0  1.865937103925594 0.2604137786483804 0
[...]
<PointData  Vectors="f_37"> 
<DataArray  type="Float64"  Name="f_37"  NumberOfComponents="3" format="ascii">-6.1297190511543147e-07 2.0333645414770287e-08 0.0000000000000000e+00  3.7341861001233709e-07 -2.9854556454009318e-08 0.0000000000000000e+00  -5.2200819333212735e-07 -3.3392756987114920e-09 0.0000000000000000e+00  6.8565693713917092e-07 -2.6656141690124891e-08 0.0000000000000000e+00  -9.8678523866596234e-07 1.0475955686662680e-07 0.0000000000000000e+00  -7.7842663886304727e-07 1.5297569014552150e-07 0.0000000000000000e+00  -1.6617751077317911e-06 3.1035113374018197e-07 0.0000000000000000e+00  1.2032067286080803e-06 2.7877778109246816e-07 0.0000000000000000e+00  2.8781512492776984e-06 -5.1335550333334143e-07 0.0000000000000000e+00  -1.0002007657213158e-06 9.0123719574068487e-08 0.0000000000000000e+00  -1.7490734112307768e-06 1.1487134806862562e-06 0.0000000000000000e+00  7.1933714876024903e-07 2.2106506556760061e-06 0.0000000000000000e+00  -3.7381938697281635e-06 -1.3206897611567548e-06 0.0000000000000000e+00  -3.5785124094897787e-06 -8.4433293332113564e-07 0.0000000000000000e+00  -1.8312251662385901e-06 2.3250580732778364e-07 0.0000000000000000e+00  -1.4183236692691827e-06 1.0598875271100550e-06 0.0000000000000000e+00  -3.9703317718087031e-06 -7.8178593855036251e-08 0.0000000000000000e+00  -3.3176414462828582e-06 -1.5882449934004302e-07 0.0000000000000000e+00  -2.2977070198894000e-06 -4.1104050737953730e-08 0.0000000000000000e+00  -1.2955282754824156e-06 -2.9085484354097700e-07 0.0000000000000000e+00  -1.0919180692278229e-06 -1.1764363505098709e-07 0.0000000000000000e+00  -1.1687340628137022e-06 -1.3476797614050566e-08 0.0000000000000000e+00  -1.6240014701960725e-07 2.1031051208374873e-07 0.0000000000000000e+00  -1.8872371274860267e-08 1.0571712058373821e-07 0.0000000000000000e+00  4.4680877997973091e-07 1.1346874658281894e-07 0.0000000000000000e+00  1.5000025240606063e+00 2.6306819159656529e-08 0.0000000000000000e+00  -2.4908541943600794e-06 1.3854092966403827e-08 0.0000000000000000e+00  -2.1978499107959157e-06 -9.5337641866576775e-08 0.0000000000000000e+00  -1.0129383342509128e-06 4.0562740660158130e-08 0.0000000000000000e+00  -2.6675725072560403e-06 9.3839333520348553e-08 0.0000000000000000e+00  -1.0456335727673814e-06 -2.3763762839692067e-08 0.0000000000000000e+00  1.4756234883027838e-06 3.3054156000575211e-08 0.0000000000000000e+00  -6.3124646574617322e-07 -5.2083279181888039e-09 0.0000000000000000e+00  2.6099184339458068e-06 -1.9063262463340049e-07 0.0000000000000000e+00  5.9088598564032982e-07 -1.9802153405479552e-07 0.0000000000000000e+00  4.5207619412047108e-07 2.7406074684873543e-08 0.0000000000000000e+00  -8.4101175446690589e-07 3.1982621799774429e-08 0.0000000000000000e+00  1.5875792557157552e-07 1.2528615373938782e-07 0.0000000000000000e+00  -3.1724956928774759e-06 5.1247185952722428e-08 0.0000000000000000e+00  1.0308799061750009e+00 2.8448126685794984e-02 0.0000000000000000e+00  1.1189724337649853e+00 -2.7774399427195458e-02 0.0000000000000000e+00  6.1001559747328404e-01 -2.5520151045002718e-02 0.0000000000000000e+00  9.1664387004861692e-01 -7.8528502407190989e-03 0.0000000000000000e+00  1.2119187610594810e+00 -3.7837526725766554e-02 0.0000000000000000e+00  2.2459048891855149e-01 -3.4054428128237064e-02 0.0000000000000000e+00  1.1995144600158767e+00 2.8566246134499568e-02 0.0000000000000000e+00  -1.6705114754269560e-06 2.0328793611500567e-08 0.0000000000000000e+00  -1.1965894810545607e-06 -6.9167557583961728e-08 0.0000000000000000e+00  7.4381669397527783e-08 1.5631200785543550e-08 0.0000000000000000e+00  1.2577225752173073e+00 2.9312034007338925e-03 0.0000000000000000e+00  -6.4128943622090271e-07 4.4802752850258192e-08 0.0000000000000000e+00  -1.6017589782711061e-06 -1.1896161699421568e-07 0.0000000000000000e+00  1.3647027265911056e+00 1.1614623934478523e-02 0.0000000000000000e+00  1.7880835689835598e-06 9.5259055971266483e-08 0.0000000000000000e+00  -3.3641498315011086e-08 -7.6113917486720013e-08 0.0000000000000000e+00  5.0700217312537837e-08 1.2893773193320388e-07 0.0000000000000000e+00  -1.2443858888717993e-06 -1.0181519756139821e-07 0.0000000000000000e+00  -8.8215327205101902e-08 -4.3105782446927027e-08 0.0000000000000000e+00  -7.5704162980159878e-07 -2.1323696763231209e-08 0.0000000000000000e+00  2.9520447428822591e-07 6.5308426723939474e-08 0.0000000000000000e+00  6.0691069018536775e-07 1.3412864990699131e-07 0.0000000000000000e+00  -2.7149700947760071e-06 1.1058558916639578e-07 0.0000000000000000e+00  -7.7440967773096657e-07 9.9502072153169944e-08 0.0000000000000000e+00  1.4012439743955785e+00 3.4043380022082244e-02 0.0000000000000000e+00  1.2475533517777545e-06 1.3958810578457735e-07 0.0000000000000000e+00  1.2838133979913140e+00 2.2551950948098325e-03 0.0000000000000000e+00  1.5863991590577879e+00 -2.2871233182415893e-02 0.0000000000000000e+00  1.4542433630551819e+00 -7.8469378125726654e-03 0.0000000000000000e+00  1.5043397081317182e+00 1.2453921094968258e-03 0.0000000000000000e+00  1.9605896553534807e+00 2.9564999333334962e-02 0.0000000000000000e+00  1.3599477503862905e+00 1.1172374125107605e-02 0.0000000000000000e+00  1.3002562149595085e+00 -4.2519029968600503e-03 0.0000000000000000e+00  1.3095256374894799e+00 5.6749582859929801e-04 0.0000000000000000e+00  1.6649695594793019e+00 -1.1082075754928825e-01 0.0000000000000000e+00  1.5608759734293391e+00 7.4529028079660123e-02 0.0000000000000000e+00  1.8647226192266451e+00 9.4354101175833094e-03 0.0000000000000000e+00  1.1249985999548286e+00 -1.6881216299742486e-07 0.0000000000000000e+00  1.1250027091155150e+00 2.0464581123733733e-08 0.0000000000000000e+00  1.7695077204663814e+00 -1.6343389695291954e-01 0.0000000000000000e+00  1.6417694738532822e+00 1.3694930216704837e-01 0.0000000000000000e+00  7.4469619886414062e-01 1.0763215424683847e-01 0.0000000000000000e+00  1.4009797235382508e+00 -2.0314688964385964e-02 0.0000000000000000e+00  1.4855655908080618e+00 4.0686128716598852e-02 0.0000000000000000e+00  1.1110044277618207e+00 -1.6325641569686178e-04 0.0000000000000000e+00  1.3694668838213697e+00 1.9649102120187041e-03 0.0000000000000000e+00  1.4219591061617929e+00 -1.0647449971608701e-02 0.0000000000000000e+00  1.2470490597202291e+00 -1.4209239783976106e-02 0.0000000000000000e+00  1.5519134979978286e+00 -1.2277280898232766e-01 0.0000000000000000e+00  1.2668529626849616e+00 -6.1321245876047948e-03 0.0000000000000000e+00  1.3054953704186938e+00 6.6284631484939249e-03 0.0000000000000000e+00  1.3985019241357797e+00 2.4850119705835333e-03 0.0000000000000000e+00  1.2463796037807693e+00 7.4224264190059812e-03 0.0000000000000000e+00  1.4167811022118351e+00 -1.1052696107081513e-02 0.0000000000000000e+00  1.3180924952968527e+00 -5.2762683278690537e-03 0.0000000000000000e+00  1.0471788010049463e+00 -5.3402485363298119e-03 0.0000000000000000e+00  1.0880173650846616e+00 -8.2556344309965835e-03 0.0000000000000000e+00  -3.3035945730415978e-01 -1.5853751925709515e-02 0.0000000000000000e+00  1.7794636520639713e+00 1.2367614218961137e-01 0.0000000000000000e+00  4.0340531426509685e-01 1.6864677651623576e-02 0.0000000000000000e+00  1.1713909335072266e+00 2.4104077461257603e-02 0.0000000000000000e+00  1.1818657624436550e+00 2.5546958007806486e-01 0.0000000000000000e+00  1.3808764849645196e+00 7.4629310638634188e-03 0.0000000000000000e+00  9.5538218866423763e-01 -1.5800800441943316e-02 0.0000000000000000e+00  1.3810507249211366e+00 2.1758753743731163e-01 0.0000000000000000e+00  1.0961069110126174e+00 -1.0630355409202265e-02 0.0000000000000000e+00  8.3699858421480304e-07 -1.6843869294279022e-08 0.0000000000000000e+00  1.8387802227153267e+00 -6.0839909429049183e-02 0.0000000000000000e+00  1.1435573875570411e+00 -2.5636603523748380e-01 0.0000000000000000e+00  1.6065575676863681e+00 -5.6217613268056819e-02 0.0000000000000000e+00  -1.0748071551453806e-06 2.7070744077008082e-08 0.0000000000000000e+00  9.4875714215328888e-01 3.9463968399132817e-03 0.0000000000000000e+00  -9.5935811215657422e-07 -1.4446118901670901e-07 0.0000000000000000e+00  -6.9318110918957398e-06 2.7312104716068891e-07 0.0000000000000000e+00  1.1257073627619965e+00 9.7957677128728514e-03 0.0000000000000000e+00  9.7617113152184817e-07 -3.1756276852385407e-08 0.0000000000000000e+00  1.8263012286717779e+00 7.8512242444063532e-02 0.0000000000000000e+00  1.0181738894565036e+00 -1.3945278000452659e-03 0.0000000000000000e+00  1.7925015880387332e+00 -1.1330604107512281e-01 0.0000000000000000e+00  -1.9966650913300489e-06 -8.6264946456646461e-08 0.0000000000000000e+00  1.7979017163038868e+00 -1.4141441917747913e-01 0.0000000000000000e+00  -4.8990374256101849e-07 1.9456873746373571e-07 0.0000000000000000e+00  1.0545187469929318e+00 1.2411182523621648e-03 0.0000000000000000e+00  1.6007558235320176e+00 1.2982731555823501e-01 0.0000000000000000e+00  -1.3310091570348983e-06 6.4977168989009474e-08 0.0000000000000000e+00  1.7221420933821794e+00 7.5061031362209055e-02 0.0000000000000000e+00  1.3596272551908024e+00 -3.0231810664639119e-01 0.0000000000000000e+00  1.3399779720417948e+00 -1.2280418594571953e-01 0.0000000000000000e+00  1.3729779237212949e+00 1.2468864939421423e-01 0.0000000000000000e+00  -2.2132586100589493e-07 4.8492481931620178e-09 0.0000000000000000e+00  1.3302493885281159e+00 2.0501821079023073e-02 0.0000000000000000e+00  1.0617706004940963e+00 6.1331830950428392e-04 0.0000000000000000e+00  -4.6093435657595171e-08 -1.7919992445142058e-07 0.0000000000000000e+00  1.1664693860566644e+00 -1.8910711903216651e-02 0.0000000000000000e+00  8.4606614829501270e-01 1.9433943790953982e-02 0.0000000000000000e+00  1.1016265393315599e+00 -4.8236263933825245e-05 0.0000000000000000e+00  1.0864164163750847e+00 -7.8750433664692594e-03 0.0000000000000000e+00  1.0433045211934502e+00 8.9101059716336771e-04 0.0000000000000000e+00  1.9202986999647402e+00 1.8443940390806932e-01 0.0000000000000000e+00  1.4415369109641332e+00 4.6197228267977420e-03 0.0000000000000000e+00  1.8641374724899934e-06 9.2381784871047652e-08 0.0000000000000000e+00  1.2121990962280928e-06 -1.2513513824237939e-07 0.0000000000000000e+00  -8.0172577213490883e-07 -5.6750646021152546e-08 0.0000000000000000e+00  6.5625203825656053e-01 1.6983725232116353e-08 0.0000000000000000e+00  1.1100108451024755e-07 1.2689860149926087e-07 0.0000000000000000e+00  9.9913522738501981e-01 4.3772740526005363e-03 0.0000000000000000e+00  1.6188263795408449e+00 1.1813206573336833e-01 0.0000000000000000e+00  1.3657787858671853e+00 1.5026965293186159e-02 0.0000000000000000e+00  9.1513127343466531e-08 2.5127170818129283e-08 0.0000000000000000e+00  -1.9817131354799682e-06 -1.6560234137094062e-09 0.0000000000000000e+00  -1.7165802336803847e-06 -7.3877143517245682e-08 0.0000000000000000e+00  -2.0516698468218992e-06 -5.0445886619144950e-08 0.0000000000000000e+00  -8.5556590201961441e-07 -1.1417735197707836e-07 0.0000000000000000e+00  -5.4141833078533148e-07 3.4706662390748143e-08 0.0000000000000000e+00  -2.3333564650870177e-06 -1.2575871518969407e-07 0.0000000000000000e+00  -1.8808726910915230e-06 1.7610502515427891e-08 0.0000000000000000e+00  1.6681696664618340e-07 -1.7643630661100563e-09 0.0000000000000000e+00  3.9625310989049417e-07 1.6474727421372606e-08 0.0000000000000000e+00  1.1869355717544692e-06 -8.4326056476701092e-08 0.0000000000000000e+00  -8.2295588839423493e-07 1.4403179347002244e-07 0.0000000000000000e+00  -7.2031918593950792e-08 1.3297837727295362e-07 0.0000000000000000e+00  -2.6362102523010700e-06 -1.7198207473676687e-07 0.0000000000000000e+00  -2.5692353840261999e-06 -2.0110886425303213e-07 0.0000000000000000e+00  -2.7300173923062758e-06 -7.7488084674309376e-08 0.0000000000000000e+00  -1.1846532894927616e-06 -1.2527458271719501e-08 0.0000000000000000e+00  -2.1975615149829714e-06 1.0818856399495324e-07 0.0000000000000000e+00  7.2385111360854881e-01 -4.3975480676344970e-02 0.0000000000000000e+00  8.5861060184124438e-01 1.0070991409521213e-02 0.0000000000000000e+00  8.7600538540641337e-01 -3.3059994062077502e-03 0.0000000000000000e+00  9.3001983597513116e-01 7.9723172545351269e-03 0.0000000000000000e+00  1.6558932578755523e+00 -6.9444139196248797e-02 0.0000000000000000e+00  3.6341079995271136e-03 -1.1934584837521986e-02 0.0000000000000000e+00  3.6415957523375113e-02 -2.8019776535103676e-02 0.0000000000000000e+00  1.2285728244465275e+00 4.5146826841233827e-02 0.0000000000000000e+00  9.7836264800725581e-01 1.2436044471864590e-03 0.0000000000000000e+00  1.1364826359779856e+00 -1.8576444936427843e-02 0.0000000000000000e+00  1.2698725498576788e+00 -2.9701689707960419e-02 0.0000000000000000e+00  8.2095923947187788e-01 6.8920122317325415e-03 0.0000000000000000e+00  1.1939971366887598e+00 -3.6963361381648421e-02 0.0000000000000000e+00  1.1886655660873489e+00 -3.0614776746350509e-03 0.0000000000000000e+00  1.2685805617904538e+00 1.5192489805862745e-02 0.0000000000000000e+00  1.2279839850104846e+00 3.5934924561015588e-02 0.0000000000000000e+00  8.6227267278990272e-01 -2.4446419700882489e-03 0.0000000000000000e+00  9.2349035453907691e-01 5.1000991866341386e-05 0.0000000000000000e+00  8.7759072760346868e-01 -2.0118249154762471e-02 0.0000000000000000e+00  8.0616649766967396e-01 6.7348035758224593e-03 0.0000000000000000e+00  2.3185981516799717e-01 5.1213551771380109e-02 0.0000000000000000e+00  1.2275146729058801e+00 -7.2957781490777654e-02 0.0000000000000000e+00  9.7075135465008400e-01 -7.6859917863524377e-02 0.0000000000000000e+00  1.1094802440243781e+00 -1.1353160702576053e-01 0.0000000000000000e+00  1.5554883529445631e+00 -1.6431726632172380e-01 0.0000000000000000e+00  1.2566538175076412e+00 -1.5661035200210522e-03 0.0000000000000000e+00  1.5334873066287524e+00 -2.6262996303178958e-02 0.0000000000000000e+00  1.4841219630753537e+00 3.2035123647990382e-02 0.0000000000000000e+00  1.2860167380700724e+00 -2.4771160180907484e-02 0.0000000000000000e+00  1.4306772532209500e+00 -1.0729816066511937e-01 0.0000000000000000e+00  1.4826925403893749e+00 -1.0168341066510894e-01 0.0000000000000000e+00  1.0018618360165445e+00 -3.0762696047914564e-02 0.0000000000000000e+00  8.0025402860711345e-02 -5.4984974250538783e-02 0.0000000000000000e+00  2.8570434946712525e-01 2.3266020746156944e-02 0.0000000000000000e+00  1.4301106929272183e+00 -1.7386653683694655e-02 0.0000000000000000e+00  9.5374469697314801e-01 -4.7483933663719236e-04 0.0000000000000000e+00  1.2064957223663542e+00 2.4458460019371735e-02 0.0000000000000000e+00  1.4297739900270858e+00 -2.7425032945469368e-02 0.0000000000000000e+00  7.9117902974780008e-01 1.9048658573391091e-02 0.0000000000000000e+00  9.0292130956405414e-01 3.3876661977905172e-03 0.0000000000000000e+00  1.3442361492516985e+00 -2.1916432965487487e-03 0.0000000000000000e+00  1.0143558079545476e+00 5.1002308899484608e-02 0.0000000000000000e+00  8.7844465241923864e-01 -3.0349237650405681e-04 0.0000000000000000e+00  6.5624905527810540e-01 8.6696690511634223e-08 0.0000000000000000e+00  1.0844613035359654e+00 5.0685660594776860e-02 0.0000000000000000e+00  1.5681547400645033e+00 3.7291472231881444e-02 0.0000000000000000e+00  1.5702330512723657e+00 -3.6611315413815959e-02 0.0000000000000000e+00  1.0325699457493340e+00 1.2453548015605236e-01 0.0000000000000000e+00  1.0704103542893171e+00 7.0597815276711745e-02 0.0000000000000000e+00  7.4349360414033061e-01 5.1929583025964697e-04 0.0000000000000000e+00  8.0784057528692210e-01 8.7601150763029059e-02 0.0000000000000000e+00  1.4894889267583151e+00 -5.3752598864914023e-03 0.0000000000000000e+00  1.6518850444895510e+00 1.7135198596712925e-01 0.0000000000000000e+00  1.3205839477362540e+00 2.6787317321335701e-03 0.0000000000000000e+00  1.4819226136374695e+00 6.7713413893892450e-03 0.0000000000000000e+00  1.6079183646863855e+00 -1.7293503363506050e-02 0.0000000000000000e+00  1.4973330727380132e+00 -1.3705513383450985e-01 0.0000000000000000e+00  1.1402031927067404e+00 2.8770928286196138e-03 0.0000000000000000e+00  1.3422637687028465e+00 2.0134759224455547e-03 0.0000000000000000e+00  1.3133808114010290e+00 -7.5896694032678664e-03 0.0000000000000000e+00  7.8856699306421429e-01 1.4821713513299753e-03 0.0000000000000000e+00  1.5960419311464666e+00 6.4941372433476904e-02 0.0000000000000000e+00  9.4150051207223506e-01 9.3617265775222336e-02 0.0000000000000000e+00  1.3848320615782925e+00 1.4619620712726598e-02 0.0000000000000000e+00  1.2233642924246448e+00 1.6058889668454063e-01 0.0000000000000000e+00  8.7485483638199957e-01 -7.3816497582422178e-03 0.0000000000000000e+00  1.1957547873931402e+00 -5.2672378532501755e-03 0.0000000000000000e+00  1.3609089548135662e+00 9.6591876683295955e-02 0.0000000000000000e+00  1.4970734391809719e+00 9.8070396067929111e-03 0.0000000000000000e+00  1.3221699955679749e+00 -2.1962141098808511e-03 0.0000000000000000e+00  1.4694947289749645e+00 -1.2895204316394189e-02 0.0000000000000000e+00  1.3181724545007485e+00 1.2597761391749222e-03 0.0000000000000000e+00  1.4712949128423509e+00 1.0038633764585128e-02 0.0000000000000000e+00  6.6100382279835646e-01 -8.6976384095860848e-04 0.0000000000000000e+00  6.3607598048875913e-01 -3.1558582734811246e-03 0.0000000000000000e+00  7.3853121199876004e-01 1.0442060295672491e-02 0.0000000000000000e+00  8.2738320181075564e-01 4.3820990100630723e-03 0.0000000000000000e+00  1.3159171607382429e+00 4.1607320438011609e-03 0.0000000000000000e+00  7.2277019889048721e-01 -1.3692619999738521e-03 0.0000000000000000e+00  1.3107325348783778e+00 -5.3116581739338887e-04 0.0000000000000000e+00  1.4055778073102254e+00 3.7586746134155469e-04 0.0000000000000000e+00  7.8872206870578787e-01 2.0995172153551973e-02 0.0000000000000000e+00  8.2239689793411030e-01 4.0688142576819186e-02 0.0000000000000000e+00  1.3010751030083878e+00 1.7227476686296820e-02 0.0000000000000000e+00  1.3753759358853663e+00 2.8798246712012365e-03 0.0000000000000000e+00  5.5192131326248661e-01 7.3713760352041909e-04 0.0000000000000000e+00  1.3671453750646902e+00 -1.4482938015261878e-02 0.0000000000000000e+00  7.6137044382142327e-01 -6.4818570033413486e-03 0.0000000000000000e+00  7.8747973219349698e-01 -4.0886614134444613e-03 0.0000000000000000e+00  7.3880828119496011e-01 -7.9174695082656482e-02 0.0000000000000000e+00  1.1937678341025744e+00 -5.3931952695407528e-02 0.0000000000000000e+00  6.5273256141543079e-01 4.2805948236494485e-03 0.0000000000000000e+00  1.5268104798308293e+00 2.9777764899996621e-02 0.0000000000000000e+00  1.5284011441303123e+00 4.7607179777234565e-01 0.0000000000000000e+00  1.0046145794605021e+00 1.8216850027324347e-01 0.0000000000000000e+00  7.5312296719572236e-01 1.4252861425739587e-03 0.0000000000000000e+00  1.3189816525386571e+00 -1.2566683949237734e-01 0.0000000000000000e+00  1.4488983507613638e+00 -5.4610101100193698e-01 0.0000000000000000e+00  6.8961311743310172e-01 2.5687593396322172e-03 0.0000000000000000e+00  7.7240714049096271e-01 6.6421765275970505e-04 0.0000000000000000e+00  1.5085733504862944e+00 -2.0290112309892964e-02 0.0000000000000000e+00  3.8457090145281519e-01 8.1497787486044762e-02 0.0000000000000000e+00  1.4062539959785523e+00 1.3201093610573791e-07 0.0000000000000000e+00  1.3378815576655523e+00 -1.2582084420630342e-02 0.0000000000000000e+00  7.3897169685976416e-01 2.2480480475605636e-04 0.0000000000000000e+00  1.4062505942854124e+00 4.5402222894185614e-08 0.0000000000000000e+00  7.4542652480133831e-01 1.1130949438684673e-03 0.0000000000000000e+00  1.8372512923263704e+00 -3.2985681404057815e-01 0.0000000000000000e+00  1.4719577503621446e+00 -6.6665265767359072e-03 0.0000000000000000e+00  7.1442553256175600e-01 9.8565398969258894e-02 0.0000000000000000e+00  1.3248016610350803e+00 -2.7270895539473865e-02 0.0000000000000000e+00  6.8832629565346937e-01 -1.4853381951807543e-03 0.0000000000000000e+00  5.1628965876914745e-01 -2.7487187484309746e-03 0.0000000000000000e+00  1.4106662075040119e+00 9.3039123522826259e-03 0.0000000000000000e+00  4.8817333481597680e-01 -6.1018716284609144e-03 0.0000000000000000e+00  6.6072806557193375e-01 -1.7260633667384288e-03 0.0000000000000000e+00  1.3072069957451640e+00 -4.409