<?xml version="1.0"?>
<VTKFile type="UnstructuredGrid"  version="0.1"  >
<UnstructuredGrid>
<Piece  NumberOfPoints="2426" NumberOfCells="4534">
<Points>
<DataArray  type="Float64"  NumberOfComponents="3"  format="ascii">0 0.41 0  0 0 0  2.2 0 0  2.2 0.41 0  0.2404508497187474 0.2293892626146237 0  0.25 0.2 0  0.2404508497187474 0.1706107373853764 0  0.2154508497187474 0.1524471741852423 0  0.1845491502812526 0.1524471741852423 0  0.1595491502812526 0.1706107373853764 0  0.15 0.2 0  0.1595491502812526 0.2293892626146237 0  0.1845491502812527 0.2475528258147577 0  0.2154508497187474 0.2475528258147577 0  0.5404508497187474 0.2293892626146237 0  0.55 0.2 0  0.5404508497187474 0.1706107373853764 0  0.5154508497187473 0.1524471741852423 0  0.4845491502812526 0.1524471741852423 0  0.4595491502812526 0.1706107373853764 0  0.45 0.2 0  0.4595491502812526 0.2293892626146237 0  0.4845491502812526 0.2475528258147577 0  0.5154508497187473 0.2475528258147577 0  1.1 0 0  0 0.205 0  1.1 0.41 0  0.55 0 0  0.55 0.41 0  0.275 0 0  0.275 0.41 0  1.65 0.41 0  1.65 0 0  1.375 0 0  1.375 0.41 0  1.925 0 0  1.925 0.41 0  0.8250000000000001 0.41 0  0.8250000000000001 0 0  1.5125 0.205 0  1.7875 0.205 0  0.9625000000000001 0.205 0  1.2375 0.205 0  2.2 0.205 0  0.7560964076246335 0.2151713709677419 0  1.99375 0.2152743902439024 0  2.0625 0 0  0.6875 0 0  2.0625 0.41 0  2.2 0.3075 0  0.6875 0.41 0  1.7875 0.41 0  1.375 0.1486128048780488 0  1.5125 0 0  1.7875 0 0  1.5125 0.41 0  0.9625000000000001 0 0  0.9625000000000001 0.41 0  0.4125 0 0  0.1375 0 0  0.1375 0.41 0  0.4125 0.41 0  1.2375 0 0  1.1 0.1486128048780487 0  1.2375 0.41 0  1.65 0.1486128048780487 0  1.126715909090909 0.2793064024390244 0  1.676715909090909 0.2793064024390244 0  1.348284090909091 0.2793064024390244 0  0.34375 0.3032389320646208 0  1.894702181800738 0.1282910975492754 0  2.092797818199262 0.1282910975492754 0  1.85625 0.3075 0  0.8630851210521902 0.286932093388664 0  0.89375 0.1025 0  0.35 0.1090282786671641 0  0 0.3075 0  0 0.1025 0  0.6526217841291382 0.288229645480046 0  0.7562500000000001 0.09660248895515888 0  0.6568633732316684 0.1557582854763441 0  2.099172119769978 0.25625 0  1.002356446954348 0.1010393851523063 0  1.99375 0.08395950269330846 0  1.459960956013612 0.3075 0  1.569025960719943 0.2986889805672169 0  1.03125 0.3278689922742084 0  0.75625 0.3247156761655783 0  1.959375 0.3126371951219512 0  1.749222215368287 0.1025 0  1.275777784631713 0.1025 0  2.2 0.1025 0  1.225938124459196 0.3075 0  1.550777784631713 0.1025 0  1.44375 0.07430640243902442 0  1.16875 0.07430640243902437 0  0.3528655045338512 0.2063263890916129 0  0.5890337614812103 0.08775733857679162 0  0.8504912436891263 0.190072835691683 0  1.899250267340833 0.2229966846119207 0  0.1020898364287272 0.3140258291809757 0  1.766482954545455 0.2934032012195123 0  1.051658316544432 0.2265720188842194 0  0.2 0.3400647632937836 0  1.421109702350723 0.2261157654379721 0  0.4812500000000001 0.41 0  0.4324401666997539 0.3216425986889796 0  0.098916018031319 0.09171660955420841 0  0.9508742791313441 0.2921736960864468 0  2.13125 0 0  2.118919042110979 0.3422084711244843 0  1.30625 0.41 0  0.20625 0 0  1.597888256393107 0.2173787389261347 0  0.4812500000000001 0 0  0.4324082967851086 0.08384041677422771 0  1.829299675393195 0.07400700849299596 0  0.568219932524165 0.3212274660843853 0  1.71875 0.41 0  0.268005226542646 0.08512186835670006 0  1.16875 0.41 0  2.038220665644273 0.332420740103091 0  0.6678017527842831 0.07701763866051195 0  0.89375 0.41 0  0.5111435174287687 0.07335351331957608 0  0.176193934632343 0.0734896648625108 0  0.07390688010811153 0.1697064032433452 0  0.05452951551825875 0.25625 0  0.61875 0.41 0  1.452769549894695 0.1548122580621249 0  1.369219062229598 0.07430640243902442 0  1.30625 0 0  1.720943423819132 0.1714577452753128 0  1.157188124459196 0.205 0  1.094219062229598 0.07430640243902437 0  1.304056576180868 0.1714577452753128 0  1.67579304192913 0.07430640243902437 0  0.2672907219039591 0.3037570723459566 0  1.209670467133757 0.1362100266964769 0  1.58125 0 0  1.03125 0 0  0.06875000000000001 0.41 0  0 0.35875 0  1.58125 0.41 0  1.631724228912893 0.3381867502687533 0  0.8240147050827157 0.1225233169495944 0  1.825608881788174 0.14499488549201 0  1.85625 0 0  1.44375 0 0  1.44375 0.41 0  1.85625 0.41 0  2.13125 0.41 0  0.7562500000000001 0.41 0  0.7562500000000001 0 0  0.89375 0 0  0.34375 0 0  0.34375 0.41 0  0.20625 0.41 0  0.06875000000000001 0 0  1.16875 0 0  1.03125 0.41 0  0.61875 0 0  1.71875 0 0  1.99375 0 0  1.99375 0.41 0  0.3972301426712326 0.2593842555611471 0  1.340625 0.3489494290853124 0  1.134375 0.3489494290853123 0  1.700180620188976 0.3438659752031281 0  0.5003922072260507 0.341765274319271 0  0.6212513815748759 0.2209216137134851 0  0.6885607720119526 0.215393731583638 0  1.033412357328477 0.1612902025713047 0  2.135782184673599 0.07126652247502523 0  1.668441847249787 0.2129203728327609 0  1.295782514339747 0.2378437748815763 0  1.409375 0.3520314716057996 0  2.129248544730567 0.1906135162504124 0  2.060771381434487 0.1989445750470348 0  2.013252586573865 0.1496169464686054 0  1.942766402200229 0.1734448904596831 0  1.895522487186454 0.06076163953489683 0  2.069553871656643 0.06605731020975725 0  0.9281250000000001 0.3539050257418612 0  1.274680914880868 0.3520219391081363 0  0.3030138498135347 0.2488370856812789 0  0.8223773249563684 0.341761430177996 0  0.9018164060227267 0.2326477848736739 0  0.8143027982392851 0.2440265179987191 0  0.7225087161029304 0.2699907246386231 0  1.614713220494657 0.09473434380863296 0  0.378125 0.3566194660323104 0  0.309375 0.3566194660323104 0  1.72990325744076 0.2380068107952482 0  0.6915936999299305 0.3429472631234433 0  0.6268087624932918 0.3466455500035671 0  1.356580098625191 0.2120393231351682 0  0.3060160055995138 0.1590148921620778 0  0.3954648733249218 0.156380553890791 0  2.034370752044885 0.2668681600792073 0  1.51768709249349 0.3426260931494756 0  1.561883724969884 0.1650446847858835 0  1.197344062229598 0.2523725417393646 0  0.9281250000000001 0.05124999999999999 0  1.804085235518364 0.3468178408964637 0  1.817887819205233 0.2589243285818559 0  0.9107805776841645 0.1653834539923287 0  1.905897727272727 0.3485060975609756 0  0 0.05125 0  0.844212276491354 0.0614201194265309 0  0.378125 0.05244637078450034 0  1.008571329007178 0.2705955969954818 0  0.7724048032149464 0.1559079561351474 0  0.7203054377831548 0.04941826955193545 0  1.192836486056382 0.3562350748565544 0  0.5967108020713719 0.1479294686523888 0  1.28257088594801 0.2944411014911587 0  0.7041890234548132 0.1222025174424443 0  1.474860187679412 0.2504218616229368 0  1.406767003493824 0.2829282258560709 0  0.3201325899091991 0.05890121548989159 0  0.5979220912872258 0.2727591995766724 0  1.845656689180403 0.1998310418452388 0  2.144958525570388 0.2909790873294231 0  2.2 0.15375 0  1.57794966442982 0.3540357145964566 0  0.9483181579620558 0.1214693369582054 0  0.0496154796471391 0.333125 0  1.508991196088596 0.1421783375065625 0  0.09776612425612034 0.2204896805326566 0  1.50436820029908 0.06143401634903343 0  1.223857000523521 0.0823554862453532 0  0.2531953886959507 0.3582003209055908 0  1.153316824384777 0.1289850171317837 0  2.148922302309752 0.1258841779285271 0  1.621993280276081 0.2841214267927899 0  1.550118654119087 0.2461998729100966 0  1.327182649291491 0.1216967252533594 0  1.753125 0.04556020050186112 0  1.271875 0.04556020050186116 0  0.9824282234771738 0.05051969257615314 0  1.039510847866381 0.05683351822678641 0  1.94956388244759 0.1180512551534177 0  1.949997712993411 0.04965831614304109 0  1.771961817615021 0.1530278789497521 0  1.909246823951428 0.2812757146784527 0  1.101974016627944 0.2038045618205013 0  0.7906250000000001 0.0444674049654372 0  1.948575539857022 0.2445328248721197 0  1.697271520964565 0.1233917627620729 0  1.065625 0.3689344961371042 0  1.085849084308977 0.3170853572226867 0  0.9840604787624379 0.3582077516409966 0  1.577403511714593 0.05463601888079143 0  0.05622663515370135 0.05493816910862376 0  0.8762396958822678 0.3392249777398821 0  1.751571320346033 0.3651102912045228 0  1.055327852410105 0.111864799513911 0  0.1583785085108421 0.2994699345738728 0  0.1455283439499995 0.3542795598723423 0  2.2 0.35875 0  0.225705107073232 0.05084786997482401 0  0.1455852234589313 0.1166494778469164 0  1.466879772203159 0.3611261772912453 0  1.990280163552011 0.3564754268533217 0  1.17471064520912 0.2990917256188288 0  0.7221925551074015 0.1739659241003985 0  0 0.25625 0  2.2 0.25625 0  2.2 0.05125 0  0 0.15375 0  1.853978576207987 0.35875 0  0.21965520498276 0.1015543880164422 0  1.515638456102889 0.2882700110184686 0  0.09048297387599738 0.3637717362208066 0  2.150453692751374 0.2387066338105111 0  1.323782677156475 0.04897634338873398 0  1.409375 0.03715320121951221 0  1.406484531114799 0.1087852750766809 0  1.134375 0.03715320121951218 0  1.627401732573545 0.04552157221025036 0  0.446875 0.3713289093361426 0  2.045405893604797 0.1105340662939892 0  1.255408269734577 0.1577307500159216 0  2.028125 0.03707597992059326 0  0.04420832937638274 0.128125 0  0.5817551710628505 0.3702615006034757 0  0.1197849154434487 0.2663398672460083 0  1.248258025468107 0.2565907092181813 0  0.1300647302703173 0.0508462728378621 0  0.7738123537510222 0.2761231499240648 0  1.203125 0.0366132337404304 0  0.5444207041612499 0.111205399508622 0  0.8016457771828226 0.1964238426015905 0  2.072662025974815 0.2975086504196739 0  0.4019040438866802 0.2103993403217561 0  0.4677372330974851 0.04827477407630658 0  0.8677218578847617 0.1432970430140788 0  1.058011122005847 0.2758866204059919 0  0.4429405887974043 0.2746184809910084 0  0.5843750000000001 0.03726989681835222 0  0.6318596133730142 0.1128692182767254 0  0.4862628454464408 0.2957029785303028 0  0.7805186758662764 0.3673578380827891 0  1.887722846421017 0.1760882698830035 0  0.3498893058880703 0.256189258793856 0  1.472640588990488 0.1118278026240017 0  1.865937103925594 0.2604137786483804 0
[...]
<PointData  Vectors="f_37"> 
<DataArray  type="Float64"  Name="f_37"  NumberOfComponents="3" format="ascii">-6.1191979672078929e-07 2.0512991493480376e-08 0.0000000000000000e+00  3.7306795284319046e-07 -2.9594645931300130e-08 0.0000000000000000e+00  -2.9292540545469398e-07 -8.9214223306254373e-09 0.0000000000000000e+00  9.2943241422172781e-07 -8.3642354728568427e-09 0.0000000000000000e+00  -9.9083404423830186e-07 1.3117203926204914e-07 0.0000000000000000e+00  -7.7647268330903596e-07 1.5994348281031102e-07 0.0000000000000000e+00  -1.6612136929244767e-06 3.2410372947334729e-07 0.0000000000000000e+00  1.1854560662089677e-06 2.7509921737057611e-07 0.0000000000000000e+00  2.8683057945442481e-06 -4.9432024656001460e-07 0.0000000000000000e+00  -9.7337800962164344e-07 8.6253692145035407e-08 0.0000000000000000e+00  -1.7397953935572447e-06 1.1169136056793488e-06 0.0000000000000000e+00  7.0041312531614591e-07 2.2293636051274067e-06 0.0000000000000000e+00  -3.7298422966739582e-06 -1.2979258296813756e-06 0.0000000000000000e+00  -3.5529542485573525e-06 -8.6277628529231856e-07 0.0000000000000000e+00  -1.8990394602508509e-06 1.0161105628694224e-07 0.0000000000000000e+00  -1.4480852348556322e-06 4.7488585802774080e-07 0.0000000000000000e+00  -3.9217839213007118e-06 -1.7369949503654640e-07 0.0000000000000000e+00  -3.0861911741983541e-06 -1.1792611656656799e-07 0.0000000000000000e+00  -1.9404977149650588e-06 -1.0891357197399230e-07 0.0000000000000000e+00  -1.5654820025032344e-06 -2.3995139530958356e-07 0.0000000000000000e+00  -1.0595526896303134e-06 -7.5298871433713242e-08 0.0000000000000000e+00  -9.9721826959227895e-07 -3.6115188806129723e-08 0.0000000000000000e+00  -5.3643850321881918e-07 2.0712491890407796e-07 0.0000000000000000e+00  -2.9144682221473735e-07 1.0264033621110928e-07 0.0000000000000000e+00  -1.1349392752248163e-06 1.8968657889096841e-07 0.0000000000000000e+00  1.5000025239841421e+00 2.0566996253663273e-08 0.0000000000000000e+00  -8.2785993650019210e-07 1.6183971794340307e-07 0.0000000000000000e+00  -2.2129898261643498e-06 -8.0396861063472679e-08 0.0000000000000000e+00  -9.8652058056099956e-07 5.2944636756790883e-08 0.0000000000000000e+00  -2.6425236023850091e-06 9.2265490814409702e-08 0.0000000000000000e+00  -1.0672695437767522e-06 -2.5437445205751705e-08 0.0000000000000000e+00  1.8580760151876440e-07 -9.7921407921025445e-08 0.0000000000000000e+00  -5.0988175303834959e-08 -5.3311612901240908e-08 0.0000000000000000e+00  2.5128880227087363e-06 -7.7326208032493892e-09 0.0000000000000000e+00  1.7774626383890377e-07 -2.9100570688349946e-08 0.0000000000000000e+00  3.2409872028808905e-07 -2.5015018301034598e-10 0.0000000000000000e+00  -1.1933482754204781e-07 5.4868043851242750e-08 0.0000000000000000e+00  -3.9760337280086729e-08 5.2496826421684395e-08 0.0000000000000000e+00  -2.8967589335575043e-06 -6.0359395966749482e-08 0.0000000000000000e+00  1.0374417609312905e+00 1.8636432119550211e-02 0.0000000000000000e+00  1.1155922625441967e+00 3.3001711416931344e-03 0.0000000000000000e+00  6.0687962063330037e-01 -8.8087945645136867e-04 0.0000000000000000e+00  9.0910346018004240e-01 -2.6909942699832538e-02 0.0000000000000000e+00  1.2062876655840269e+00 2.9418732044140584e-03 0.0000000000000000e+00  2.2487317699816153e-01 -4.5356411864368125e-02 0.0000000000000000e+00  1.2097226428683081e+00 -5.5385884381226255e-03 0.0000000000000000e+00  -1.7656877358056291e-06 7.8990422481385404e-09 0.0000000000000000e+00  -1.4839246290342478e-06 -4.6892364790714750e-08 0.0000000000000000e+00  -6.7451768678619232e-07 -6.0101886016483845e-08 0.0000000000000000e+00  1.2720911289868284e+00 1.4479691422949222e-05 0.0000000000000000e+00  -3.8199436028345426e-07 6.1160030650222304e-08 0.0000000000000000e+00  -1.4025589997013077e-06 1.3065760813759805e-08 0.0000000000000000e+00  1.3786223610459072e+00 1.9972672745696963e-02 0.0000000000000000e+00  1.1871884778373207e-06 7.2408150230081237e-08 0.0000000000000000e+00  -1.3364120471112211e-07 2.7835201532584663e-08 0.0000000000000000e+00  1.3946563599024223e-06 1.5720506487931052e-07 0.0000000000000000e+00  -4.4221763310074577e-07 -8.8730812906877117e-08 0.0000000000000000e+00  -8.9671343390948146e-07 -5.8958539473964658e-08 0.0000000000000000e+00  -7.2663508911835557e-07 -2.4601008786786457e-08 0.0000000000000000e+00  2.9778648956826968e-07 6.5337909221097000e-08 0.0000000000000000e+00  6.0791852099518577e-07 1.3432337221922452e-07 0.0000000000000000e+00  -2.7416397227724068e-06 1.0978676959566984e-07 0.0000000000000000e+00  5.1120286631069199e-07 -1.0017083268473636e-07 0.0000000000000000e+00  1.3688627618742426e+00 2.2200728835182319e-02 0.0000000000000000e+00  -1.2740391641522832e-07 -1.3115529638785705e-07 0.0000000000000000e+00  1.3054057374132608e+00 -2.5145336312505178e-03 0.0000000000000000e+00  1.5886033853253470e+00 -2.9073775700552518e-02 0.0000000000000000e+00  1.4341104670190412e+00 1.1008835368884898e-03 0.0000000000000000e+00  1.5008416949346830e+00 2.2491656699983498e-03 0.0000000000000000e+00  1.9607618922081884e+00 2.9837991101029988e-02 0.0000000000000000e+00  1.3431116706093709e+00 7.4602330103345311e-03 0.0000000000000000e+00  1.3330460612697541e+00 2.3573601270592431e-03 0.0000000000000000e+00  1.3167024425208791e+00 -3.7835812058950907e-03 0.0000000000000000e+00  1.6602793062275651e+00 -1.0379464388814479e-01 0.0000000000000000e+00  1.5593760807837920e+00 7.9081711516957628e-02 0.0000000000000000e+00  1.8647363406325093e+00 9.7404927610985747e-03 0.0000000000000000e+00  1.1249986001435910e+00 -1.7033843723945343e-07 0.0000000000000000e+00  1.1250027121476847e+00 1.8375910692105721e-08 0.0000000000000000e+00  1.7708922911856195e+00 -1.6426786858555789e-01 0.0000000000000000e+00  1.6454124257082343e+00 1.3697179273610605e-01 0.0000000000000000e+00  7.3938834015863630e-01 1.0674337906695026e-01 0.0000000000000000e+00  1.3611598990840093e+00 -1.0469687369050391e-02 0.0000000000000000e+00  1.4760282722368083e+00 3.2739046590694425e-02 0.0000000000000000e+00  1.1166435423618750e+00 3.0772037500285363e-04 0.0000000000000000e+00  1.3763394631982868e+00 -6.3624195125734700e-03 0.0000000000000000e+00  1.4096326832070920e+00 -3.5584402388478039e-03 0.0000000000000000e+00  1.2484014381133552e+00 -2.0827441824177877e-02 0.0000000000000000e+00  1.5494797354569674e+00 -1.2236314546386953e-01 0.0000000000000000e+00  1.2562385525561577e+00 -1.6326853457342332e-03 0.0000000000000000e+00  1.2994695013830013e+00 4.5668431711930703e-03 0.0000000000000000e+00  1.4036693837693295e+00 8.0654928161270865e-03 0.0000000000000000e+00  1.2354555977121737e+00 4.4480729456540420e-03 0.0000000000000000e+00  1.4064819112803437e+00 6.8741310876179742e-04 0.0000000000000000e+00  1.3254902332278919e+00 -6.3027273757980027e-04 0.0000000000000000e+00  1.0518292533031257e+00 -7.9259103461948276e-03 0.0000000000000000e+00  1.0949918571225790e+00 -1.7344470500219749e-03 0.0000000000000000e+00  -3.3032627016084271e-01 -1.4948373565999500e-02 0.0000000000000000e+00  1.7793371963168703e+00 1.2352452090820380e-01 0.0000000000000000e+00  4.1583310927668038e-01 1.7240047032813791e-02 0.0000000000000000e+00  1.1941894037305072e+00 2.0918979054331245e-02 0.0000000000000000e+00  1.1818528678740736e+00 2.5545765096519141e-01 0.0000000000000000e+00  1.3893587688612226e+00 2.2503532124726637e-03 0.0000000000000000e+00  9.8993052996209552e-01 -1.6989354429279645e-02 0.0000000000000000e+00  1.3810419496270165e+00 2.1762452180384134e-01 0.0000000000000000e+00  1.0970644785637980e+00 1.1935660346899591e-02 0.0000000000000000e+00  8.3206022231441266e-07 -1.4132258110417819e-08 0.0000000000000000e+00  1.8391947748125201e+00 -6.1076957608128785e-02 0.0000000000000000e+00  1.1435705148283992e+00 -2.5638082826643149e-01 0.0000000000000000e+00  1.6147402168715981e+00 -5.6090499064301032e-02 0.0000000000000000e+00  -8.7017301438980487e-07 -3.1656421093045889e-08 0.0000000000000000e+00  9.5520907258251642e-01 1.9656342788028284e-03 0.0000000000000000e+00  -2.5852591069220866e-06 -2.0736251949494502e-07 0.0000000000000000e+00  -6.9142401632689193e-06 2.7178250380476456e-07 0.0000000000000000e+00  1.1411617314497142e+00 -1.8324530747053418e-02 0.0000000000000000e+00  9.9332850896351009e-07 -2.9275113581224706e-08 0.0000000000000000e+00  1.8259033665074815e+00 7.8291474940923714e-02 0.0000000000000000e+00  1.0216788399789369e+00 -2.2872453981012376e-03 0.0000000000000000e+00  1.7924386265321410e+00 -1.1338612132906618e-01 0.0000000000000000e+00  -2.8774631495190275e-06 -8.3375668496102239e-08 0.0000000000000000e+00  1.7978970760114354e+00 -1.4131315374514428e-01 0.0000000000000000e+00  2.4915633227776547e-07 9.1306733492681223e-08 0.0000000000000000e+00  1.0595530444240253e+00 3.9450999811280569e-03 0.0000000000000000e+00  1.6013813080259216e+00 1.2896315331175298e-01 0.0000000000000000e+00  -2.3429106638366918e-06 -3.2836701589306145e-08 0.0000000000000000e+00  1.7220991999113697e+00 7.4815298159806656e-02 0.0000000000000000e+00  1.3596484573671459e+00 -3.0229913874105052e-01 0.0000000000000000e+00  1.3399822669803017e+00 -1.2283432599900615e-01 0.0000000000000000e+00  1.3729741037483856e+00 1.2466688555396113e-01 0.0000000000000000e+00  -1.3567565064712958e-07 1.6290814679346136e-08 0.0000000000000000e+00  1.2996965609532394e+00 2.0409553067678429e-02 0.0000000000000000e+00  1.0562544262571139e+00 -5.9764626199686173e-03 0.0000000000000000e+00  1.3305663606766416e-06 -1.5916795086665726e-07 0.0000000000000000e+00  1.2004614132156350e+00 -6.7445952908387072e-03 0.0000000000000000e+00  8.5500293949211814e-01 -1.2253388146693949e-02 0.0000000000000000e+00  1.1093939273927400e+00 -7.0257176539256522e-04 0.0000000000000000e+00  1.1362276780781355e+00 4.9150123899789483e-03 0.0000000000000000e+00  1.0397447057363576e+00 -1.4082124335565327e-05 0.0000000000000000e+00  1.9202851553672120e+00 1.8457022122823666e-01 0.0000000000000000e+00  1.4596365562884408e+00 9.3291402748384260e-03 0.0000000000000000e+00  2.1888757376700910e-06 5.5233379327743941e-09 0.0000000000000000e+00  4.7575260388085654e-07 1.3502062002670057e-08 0.0000000000000000e+00  -7.9928694363377788e-07 -5.6236085903698305e-08 0.0000000000000000e+00  6.5625203834808254e-01 1.6937692504042344e-08 0.0000000000000000e+00  1.2563260363326715e-07 2.9755134254022316e-08 0.0000000000000000e+00  1.0032980532098799e+00 8.4691878577734681e-03 0.0000000000000000e+00  1.6271294214248828e+00 1.2300966004398206e-01 0.0000000000000000e+00  1.3519185852018800e+00 1.6367293509309568e-02 0.0000000000000000e+00  -4.0237555251404396e-07 4.5910979780471182e-08 0.0000000000000000e+00  -3.2394231080303304e-06 1.4970774767727840e-07 0.0000000000000000e+00  -4.2504570008341785e-07 5.8949172775513068e-08 0.0000000000000000e+00  -1.2868788462603610e-06 2.6964523481677449e-08 0.0000000000000000e+00  -1.0933197902531157e-06 -2.6329824081638208e-08 0.0000000000000000e+00  -2.2058328299456467e-07 5.1365802119292925e-08 0.0000000000000000e+00  -2.6815305078659475e-06 -1.2756451291262238e-07 0.0000000000000000e+00  -8.1864139666580084e-07 -9.0790123289599880e-08 0.0000000000000000e+00  1.9950155283430127e-07 -3.4880469252016931e-09 0.0000000000000000e+00  3.6410764887962872e-07 1.6521054701732975e-08 0.0000000000000000e+00  1.1752906416892839e-06 -8.5936346404827347e-08 0.0000000000000000e+00  -8.2472953896750752e-07 1.4464330954488593e-07 0.0000000000000000e+00  -4.6435239963603701e-07 7.7621260516208421e-08 0.0000000000000000e+00  -1.8470102081523135e-06 7.4342282863365948e-08 0.0000000000000000e+00  -2.6705952971844258e-06 -1.7684276085713905e-07 0.0000000000000000e+00  -2.3411753891618164e-06 -4.7544648865843736e-08 0.0000000000000000e+00  -1.1993508795215031e-06 1.3106911663719302e-08 0.0000000000000000e+00  -2.1836160952156014e-06 4.3763740133907959e-09 0.0000000000000000e+00  7.2414212639687559e-01 -4.3394544669887514e-02 0.0000000000000000e+00  8.6574191123737654e-01 5.9728096925205417e-03 0.0000000000000000e+00  8.6983035246501350e-01 -5.7953838353497049e-04 0.0000000000000000e+00  9.3803165120225884e-01 5.6358724051053790e-03 0.0000000000000000e+00  1.6559146414405523e+00 -6.9680094018560734e-02 0.0000000000000000e+00  5.9548152749015794e-03 -9.7969882260732621e-03 0.0000000000000000e+00  3.9957071612536026e-02 -3.1093047502531685e-02 0.0000000000000000e+00  1.1992366575476090e+00 4.2683222372214308e-02 0.0000000000000000e+00  9.7691020413753860e-01 7.4203207275489553e-04 0.0000000000000000e+00  1.1191652755191293e+00 -3.0424505365402924e-02 0.0000000000000000e+00  1.2163708859615945e+00 -1.9014223061304132e-02 0.0000000000000000e+00  8.1918709008664181e-01 2.1945291905034001e-03 0.0000000000000000e+00  1.1977996065654803e+00 -1.9148126257951460e-02 0.0000000000000000e+00  1.1802280351726737e+00 -2.3158593645967375e-02 0.0000000000000000e+00  1.2743541957775433e+00 -6.4348619261497581e-04 0.0000000000000000e+00  1.1942824627050519e+00 2.0338597913142881e-02 0.0000000000000000e+00  8.6593944439260717e-01 -1.2484106104952502e-03 0.0000000000000000e+00  9.2352305343425090e-01 -4.8343873936925636e-05 0.0000000000000000e+00  8.8167254248843252e-01 -2.0688738074906891e-02 0.0000000000000000e+00  8.1443464794654441e-01 8.2782726674828430e-03 0.0000000000000000e+00  2.3168937312750085e-01 5.1338096861097395e-02 0.0000000000000000e+00  1.2275485793150407e+00 -7.0500170868342454e-02 0.0000000000000000e+00  9.4409952484527093e-01 -6.3660528801918179e-02 0.0000000000000000e+00  1.0967343084564860e+00 -1.1412519097261570e-01 0.0000000000000000e+00  1.5558707776073539e+00 -1.6796056462054795e-01 0.0000000000000000e+00  1.2650298218047265e+00 2.4002997701347908e-03 0.0000000000000000e+00  1.5337680946870016e+00 -2.6258869526026428e-02 0.0000000000000000e+00  1.4842558846512615e+00 3.2120132514981713e-02 0.0000000000000000e+00  1.2439806556743962e+00 -1.5214651372317114e-02 0.0000000000000000e+00  1.4297677955774952e+00 -1.0776008678638242e-01 0.0000000000000000e+00  1.4823634213473496e+00 -1.0189054706263048e-01 0.0000000000000000e+00  9.8027859749009927e-01 -1.6274398031374175e-03 0.0000000000000000e+00  8.0033914296419734e-02 -5.4803135165051961e-02 0.0000000000000000e+00  2.8521465188769607e-01 2.3915169680951497e-02 0.0000000000000000e+00  1.4061062778009437e+00 -1.0855254081557629e-02 0.0000000000000000e+00  9.4560054743352828e-01 2.5132036304340638e-03 0.0000000000000000e+00  1.1720276882291707e+00 8.0758635762955954e-03 0.0000000000000000e+00  1.4230619682115730e+00 -2.8916776790625386e-02 0.0000000000000000e+00  7.8755934902260027e-01 1.8304220769150951e-02 0.0000000000000000e+00  9.0112346745386662e-01 7.0249665045300346e-04 0.0000000000000000e+00  1.3517629714516270e+00 3.0048432560106590e-03 0.0000000000000000e+00  1.0388834629005619e+00 6.4579966983495662e-02 0.0000000000000000e+00  8.7428643381629723e-01 1.1466671643189505e-03 0.0000000000000000e+00  6.5624905595056104e-01 8.6941094114637103e-08 0.0000000000000000e+00  1.0829333049958629e+00 5.3229932930235944e-02 0.0000000000000000e+00  1.5678825147958853e+00 3.7298932646037231e-02 0.0000000000000000e+00  1.5861037321246334e+00 -4.3345116504518097e-02 0.0000000000000000e+00  1.0357179188693511e+00 1.1911621395126733e-01 0.0000000000000000e+00  1.0719250983228981e+00 7.0425864137252187e-02 0.0000000000000000e+00  7.4398846398240381e-01 5.2782638283935725e-03 0.0000000000000000e+00  8.0567086009875533e-01 8.8233324894251827e-02 0.0000000000000000e+00  1.4818939897486889e+00 4.0591382994004978e-03 0.0000000000000000e+00  1.6514259463811867e+00 1.6844011587999369e-01 0.0000000000000000e+00  1.3607876532140717e+00 -3.8444849868781925e-03 0.0000000000000000e+00  1.4981105588121431e+00 -2.4629604223806653e-03 0.0000000000000000e+00  1.6077760644403920e+00 -1.7192920414837071e-02 0.0000000000000000e+00  1.4992266001139432e+00 -1.3676505586564516e-01 0.0000000000000000e+00  1.1342098470292041e+00 2.5625817882900165e-02 0.0000000000000000e+00  1.3469295998904625e+00 1.1310848473622623e-03 0.0000000000000000e+00  1.3220246004073275e+00 1.2683406644457391e-02 0.0000000000000000e+00  7.8852158314937915e-01 5.6587885818754719e-03 0.0000000000000000e+00  1.5897317333101726e+00 6.6008304232938034e-02 0.0000000000000000e+00  9.4149703788839534e-01 9.3607337974720775e-02 0.0000000000000000e+00  1.3499363781316320e+00 8.9852296204588900e-03 0.0000000000000000e+00  1.2233589410635366e+00 1.6055276908659674e-01 0.0000000000000000e+00  8.8153670954954033e-01 -4.5654647099568017e-03 0.0000000000000000e+00  1.1989564195493583e+00 1.9168005531982433e-03 0.0000000000000000e+00  1.3609507902801758e+00 9.6650098007310906e-02 0.0000000000000000e+00  1.4980224874566854e+00 8.7573053853304307e-03 0.0000000000000000e+00  1.3371696897787622e+00 8.2159527331936866e-03 0.0000000000000000e+00  1.4516816522958467e+00 -2.3196108061242335e-03 0.0000000000000000e+00  1.3576354035545519e+00 -1.4986941624269175e-02 0.0000000000000000e+00  1.4789979266183242e+00 1.3136553988922311e-02 0.0000000000000000e+00  6.6228249257140015e-01 -1.9065669736694243e-03 0.0000000000000000e+00  6.3035597359830864e-01 -2.8202448336180517e-03 0.0000000000000000e+00  7.3819160058431499e-01 7.3089861259880897e-03 0.0000000000000000e+00  8.3170984284048088e-01 7.8865334845569415e-04 0.0000000000000000e+00  1.3168901531532460e+00 3.0574546145905298e-03 0.0000000000000000e+00  7.2328105995309311e-01 -9.2467694093528079e-04 0.0000000000000000e+00  1.3295459994049657e+00 1.3567071028346707e-02 0.0000000000000000e+00  1.4248517523185935e+00 -7.0984958133624909e-03 0.0000000000000000e+00  7.9530469779072088e-01 4.0786042925355596e-03 0.0000000000000000e+00  8.2265935878717644e-01 4.1767251464620771e-02 0.0000000000000000e+00  1.3359492755909985e+00 -3.5404243333602386e-03 0.0000000000000000e+00  1.3942128690745796e+00 7.7945670822072077e-03 0.0000000000000000e+00  5.4707265557612750e-01 -1.0186177225525951e-03 0.0000000000000000e+00  1.3629537361530566e+00 -1.9160896832038300e-02 0.0000000000000000e+00  7.6240752883524887e-01 -9.4192638540796340e-03 0.0000000000000000e+00  7.8726249049563957e-01 -1.7521680546947265e-03 0.0000000000000000e+00  7.3881316928904583e-01 -7.9183481096776712e-02 0.0000000000000000e+00  1.1968498929006752e+00 -5.1643730414076147e-02 0.0000000000000000e+00  6.5367351361437942e-01 2.0192588403196536e-03 0.0000000000000000e+00  1.5176860830958214e+00 1.9894980907305380e-02 0.0000000000000000e+00  1.5283698484023722e+00 4.7607817886518888e-01 0.0000000000000000e+00  1.0046004301872755e+00 1.8217477800598605e-01 0.0000000000000000e+00  7.5267468333072729e-01 8.1482242808928081e-04 0.0000000000000000e+00  1.3189741928508441e+00 -1.2562803651677032e-01 0.0000000000000000e+00  1.4489260348752329e+00 -5.4610751381339107e-01 0.0000000000000000e+00  6.8361102732130141e-01 1.6213891091434532e-03 0.0000000000000000e+00  7.7430333056300416e-01 2.5346264788037648e-03 0.0000000000000000e+00  1.4944100741783573e+00 -1.2601646805520825e-02 0.0000000000000000e+00  3.7945994724043364e-01 7.4031805468917924e-02 0.0000000000000000e+00  1.4062539970957291e+00 1.2743586700277279e-07 0.0000000000000000e+00  1.3298043395098458e+00 5.4235270672060463e-04 0.0000000000000000e+00  7.4140508193606358e-01 -2.1502166531982015e-04 0.0000000000000000e+00  1.4062505960057843e+00 4.0980473566106538e-08 0.0000000000000000e+00  7.4158930357659747e-01 7.7753686203243025e-04 0.0000000000000000e+00  1.8372840840062372e+00 -3.2979877100387578e-01 0.0000000000000000e+00  1.4807310496589272e+00 -1.1678313181443715e-02 0.0000000000000000e+00  7.1441619587705107e-01 9.8560583873519611e-02 0.0000000000000000e+00  1.2799277515229963e+00 -1.2568734566868366e-02 0.0000000000000000e+00  6.8457052886556768e-01 -4.2127617621999540e-03 0.0000000000000000e+00  5.2035301357049235e-01 -4.6134736460494621e-03 0.0000000000000000e+00  1.3955103845050070e+00 2.0971855056940413e-04 0.0000000000000000e+00  4.9213635265986844e-01 -4.4381449226581831e-03 0.0000000000000000e+00  6.5835425859488017e-01 -1.3651263024292656e-03 0.0000000000000000e+00  1.3073351013468442e+00 -4.4