<?xml version="1.0"?>
<VTKFile type="UnstructuredGrid"  version="0.1"  >
<UnstructuredGrid>
<Piece  NumberOfPoints="2426" NumberOfCells="4534">
<Points>
<DataArray  type="Float64"  NumberOfComponents="3"  format="ascii">0 0.41 0  0 0 0  2.2 0 0  2.2 0.41 0  0.2404508497187474 0.2293892626146237 0  0.25 0.2 0  0.2404508497187474 0.1706107373853764 0  0.2154508497187474 0.1524471741852423 0  0.1845491502812526 0.1524471741852423 0  0.1595491502812526 0.1706107373853764 0  0.15 0.2 0  0.1595491502812526 0.2293892626146237 0  0.1845491502812527 0.2475528258147577 0  0.2154508497187474 0.2475528258147577 0  0.5404508497187474 0.2293892626146237 0  0.55 0.2 0  0.5404508497187474 0.1706107373853764 0  0.5154508497187473 0.1524471741852423 0  0.4845491502812526 0.1524471741852423 0  0.4595491502812526 0.1706107373853764 0  0.45 0.2 0  0.4595491502812526 0.2293892626146237 0  0.4845491502812526 0.2475528258147577 0  0.5154508497187473 0.2475528258147577 0  1.1 0 0  0 0.205 0  1.1 0.41 0  0.55 0 0  0.55 0.41 0  0.275 0 0  0.275 0.41 0  1.65 0.41 0  1.65 0 0  1.375 0 0  1.375 0.41 0  1.925 0 0  1.925 0.41 0  0.8250000000000001 0.41 0  0.8250000000000001 0 0  1.5125 0.205 0  1.7875 0.205 0  0.9625000000000001 0.205 0  1.2375 0.205 0  2.2 0.205 0  0.7560964076246335 0.2151713709677419 0  1.99375 0.2152743902439024 0  2.0625 0 0  0.6875 0 0  2.0625 0.41 0  2.2 0.3075 0  0.6875 0.41 0  1.7875 0.41 0  1.375 0.1486128048780488 0  1.5125 0 0  1.7875 0 0  1.5125 0.41 0  0.9625000000000001 0 0  0.9625000000000001 0.41 0  0.4125 0 0  0.1375 0 0  0.1375 0.41 0  0.4125 0.41 0  1.2375 0 0  1.1 0.1486128048780487 0  1.2375 0.41 0  1.65 0.1486128048780487 0  1.126715909090909 0.2793064024390244 0  1.676715909090909 0.2793064024390244 0  1.348284090909091 0.2793064024390244 0  0.34375 0.3032389320646208 0  1.894702181800738 0.1282910975492754 0  2.092797818199262 0.1282910975492754 0  1.85625 0.3075 0  0.8630851210521902 0.286932093388664 0  0.89375 0.1025 0  0.35 0.1090282786671641 0  0 0.3075 0  0 0.1025 0  0.6526217841291382 0.288229645480046 0  0.7562500000000001 0.09660248895515888 0  0.6568633732316684 0.1557582854763441 0  2.099172119769978 0.25625 0  1.002356446954348 0.1010393851523063 0  1.99375 0.08395950269330846 0  1.459960956013612 0.3075 0  1.569025960719943 0.2986889805672169 0  1.03125 0.3278689922742084 0  0.75625 0.3247156761655783 0  1.959375 0.3126371951219512 0  1.749222215368287 0.1025 0  1.275777784631713 0.1025 0  2.2 0.1025 0  1.225938124459196 0.3075 0  1.550777784631713 0.1025 0  1.44375 0.07430640243902442 0  1.16875 0.07430640243902437 0  0.3528655045338512 0.2063263890916129 0  0.5890337614812103 0.08775733857679162 0  0.8504912436891263 0.190072835691683 0  1.899250267340833 0.2229966846119207 0  0.1020898364287272 0.3140258291809757 0  1.766482954545455 0.2934032012195123 0  1.051658316544432 0.2265720188842194 0  0.2 0.3400647632937836 0  1.421109702350723 0.2261157654379721 0  0.4812500000000001 0.41 0  0.4324401666997539 0.3216425986889796 0  0.098916018031319 0.09171660955420841 0  0.9508742791313441 0.2921736960864468 0  2.13125 0 0  2.118919042110979 0.3422084711244843 0  1.30625 0.41 0  0.20625 0 0  1.597888256393107 0.2173787389261347 0  0.4812500000000001 0 0  0.4324082967851086 0.08384041677422771 0  1.829299675393195 0.07400700849299596 0  0.568219932524165 0.3212274660843853 0  1.71875 0.41 0  0.268005226542646 0.08512186835670006 0  1.16875 0.41 0  2.038220665644273 0.332420740103091 0  0.6678017527842831 0.07701763866051195 0  0.89375 0.41 0  0.5111435174287687 0.07335351331957608 0  0.176193934632343 0.0734896648625108 0  0.07390688010811153 0.1697064032433452 0  0.05452951551825875 0.25625 0  0.61875 0.41 0  1.452769549894695 0.1548122580621249 0  1.369219062229598 0.07430640243902442 0  1.30625 0 0  1.720943423819132 0.1714577452753128 0  1.157188124459196 0.205 0  1.094219062229598 0.07430640243902437 0  1.304056576180868 0.1714577452753128 0  1.67579304192913 0.07430640243902437 0  0.2672907219039591 0.3037570723459566 0  1.209670467133757 0.1362100266964769 0  1.58125 0 0  1.03125 0 0  0.06875000000000001 0.41 0  0 0.35875 0  1.58125 0.41 0  1.631724228912893 0.3381867502687533 0  0.8240147050827157 0.1225233169495944 0  1.825608881788174 0.14499488549201 0  1.85625 0 0  1.44375 0 0  1.44375 0.41 0  1.85625 0.41 0  2.13125 0.41 0  0.7562500000000001 0.41 0  0.7562500000000001 0 0  0.89375 0 0  0.34375 0 0  0.34375 0.41 0  0.20625 0.41 0  0.06875000000000001 0 0  1.16875 0 0  1.03125 0.41 0  0.61875 0 0  1.71875 0 0  1.99375 0 0  1.99375 0.41 0  0.3972301426712326 0.2593842555611471 0  1.340625 0.3489494290853124 0  1.134375 0.3489494290853123 0  1.700180620188976 0.3438659752031281 0  0.5003922072260507 0.341765274319271 0  0.6212513815748759 0.2209216137134851 0  0.6885607720119526 0.215393731583638 0  1.033412357328477 0.1612902025713047 0  2.135782184673599 0.07126652247502523 0  1.668441847249787 0.2129203728327609 0  1.295782514339747 0.2378437748815763 0  1.409375 0.3520314716057996 0  2.129248544730567 0.1906135162504124 0  2.060771381434487 0.1989445750470348 0  2.013252586573865 0.1496169464686054 0  1.942766402200229 0.1734448904596831 0  1.895522487186454 0.06076163953489683 0  2.069553871656643 0.06605731020975725 0  0.9281250000000001 0.3539050257418612 0  1.274680914880868 0.3520219391081363 0  0.3030138498135347 0.2488370856812789 0  0.8223773249563684 0.341761430177996 0  0.9018164060227267 0.2326477848736739 0  0.8143027982392851 0.2440265179987191 0  0.7225087161029304 0.2699907246386231 0  1.614713220494657 0.09473434380863296 0  0.378125 0.3566194660323104 0  0.309375 0.3566194660323104 0  1.72990325744076 0.2380068107952482 0  0.6915936999299305 0.3429472631234433 0  0.6268087624932918 0.3466455500035671 0  1.356580098625191 0.2120393231351682 0  0.3060160055995138 0.1590148921620778 0  0.3954648733249218 0.156380553890791 0  2.034370752044885 0.2668681600792073 0  1.51768709249349 0.3426260931494756 0  1.561883724969884 0.1650446847858835 0  1.197344062229598 0.2523725417393646 0  0.9281250000000001 0.05124999999999999 0  1.804085235518364 0.3468178408964637 0  1.817887819205233 0.2589243285818559 0  0.9107805776841645 0.1653834539923287 0  1.905897727272727 0.3485060975609756 0  0 0.05125 0  0.844212276491354 0.0614201194265309 0  0.378125 0.05244637078450034 0  1.008571329007178 0.2705955969954818 0  0.7724048032149464 0.1559079561351474 0  0.7203054377831548 0.04941826955193545 0  1.192836486056382 0.3562350748565544 0  0.5967108020713719 0.1479294686523888 0  1.28257088594801 0.2944411014911587 0  0.7041890234548132 0.1222025174424443 0  1.474860187679412 0.2504218616229368 0  1.406767003493824 0.2829282258560709 0  0.3201325899091991 0.05890121548989159 0  0.5979220912872258 0.2727591995766724 0  1.845656689180403 0.1998310418452388 0  2.144958525570388 0.2909790873294231 0  2.2 0.15375 0  1.57794966442982 0.3540357145964566 0  0.9483181579620558 0.1214693369582054 0  0.0496154796471391 0.333125 0  1.508991196088596 0.1421783375065625 0  0.09776612425612034 0.2204896805326566 0  1.50436820029908 0.06143401634903343 0  1.223857000523521 0.0823554862453532 0  0.2531953886959507 0.3582003209055908 0  1.153316824384777 0.1289850171317837 0  2.148922302309752 0.1258841779285271 0  1.621993280276081 0.2841214267927899 0  1.550118654119087 0.2461998729100966 0  1.327182649291491 0.1216967252533594 0  1.753125 0.04556020050186112 0  1.271875 0.04556020050186116 0  0.9824282234771738 0.05051969257615314 0  1.039510847866381 0.05683351822678641 0  1.94956388244759 0.1180512551534177 0  1.949997712993411 0.04965831614304109 0  1.771961817615021 0.1530278789497521 0  1.909246823951428 0.2812757146784527 0  1.101974016627944 0.2038045618205013 0  0.7906250000000001 0.0444674049654372 0  1.948575539857022 0.2445328248721197 0  1.697271520964565 0.1233917627620729 0  1.065625 0.3689344961371042 0  1.085849084308977 0.3170853572226867 0  0.9840604787624379 0.3582077516409966 0  1.577403511714593 0.05463601888079143 0  0.05622663515370135 0.05493816910862376 0  0.8762396958822678 0.3392249777398821 0  1.751571320346033 0.3651102912045228 0  1.055327852410105 0.111864799513911 0  0.1583785085108421 0.2994699345738728 0  0.1455283439499995 0.3542795598723423 0  2.2 0.35875 0  0.225705107073232 0.05084786997482401 0  0.1455852234589313 0.1166494778469164 0  1.466879772203159 0.3611261772912453 0  1.990280163552011 0.3564754268533217 0  1.17471064520912 0.2990917256188288 0  0.7221925551074015 0.1739659241003985 0  0 0.25625 0  2.2 0.25625 0  2.2 0.05125 0  0 0.15375 0  1.853978576207987 0.35875 0  0.21965520498276 0.1015543880164422 0  1.515638456102889 0.2882700110184686 0  0.09048297387599738 0.3637717362208066 0  2.150453692751374 0.2387066338105111 0  1.323782677156475 0.04897634338873398 0  1.409375 0.03715320121951221 0  1.406484531114799 0.1087852750766809 0  1.134375 0.03715320121951218 0  1.627401732573545 0.04552157221025036 0  0.446875 0.3713289093361426 0  2.045405893604797 0.1105340662939892 0  1.255408269734577 0.1577307500159216 0  2.028125 0.03707597992059326 0  0.04420832937638274 0.128125 0  0.5817551710628505 0.3702615006034757 0  0.1197849154434487 0.2663398672460083 0  1.248258025468107 0.2565907092181813 0  0.1300647302703173 0.0508462728378621 0  0.7738123537510222 0.2761231499240648 0  1.203125 0.0366132337404304 0  0.5444207041612499 0.111205399508622 0  0.8016457771828226 0.1964238426015905 0  2.072662025974815 0.2975086504196739 0  0.4019040438866802 0.2103993403217561 0  0.4677372330974851 0.04827477407630658 0  0.8677218578847617 0.1432970430140788 0  1.058011122005847 0.2758866204059919 0  0.4429405887974043 0.2746184809910084 0  0.5843750000000001 0.03726989681835222 0  0.6318596133730142 0.1128692182767254 0  0.4862628454464408 0.2957029785303028 0  0.7805186758662764 0.3673578380827891 0  1.887722846421017 0.1760882698830035 0  0.3498893058880703 0.256189258793856 0  1.472640588990488 0.1118278026240017 0  1.865937103925594 0.2604137786483804 0
[...]
<PointData  Vectors="f_37"> 
<DataArray  type="Float64"  Name="f_37"  NumberOfComponents="3" format="ascii">-4.2773612655668119e-07 1.1968989499537369e-08 0.0000000000000000e+00  2.6359959130588668e-07 4.1623390321164440e-08 0.0000000000000000e+00  -1.7551098161796069e-07 -6.4999580108275426e-08 0.0000000000000000e+00  1.2070677370469934e-06 -1.2897911198474000e-07 0.0000000000000000e+00  -1.6447916092519867e-05 -1.2454931426490596e-05 0.0000000000000000e+00  -2.2777405742647700e-06 -2.5852075907980389e-06 0.0000000000000000e+00  -8.5650119532342620e-06 1.2882200148014346e-05 0.0000000000000000e+00  -8.6144899550894962e-06 -6.5852443108941094e-06 0.0000000000000000e+00  -5.9394020987507516e-06 -8.5374838839349263e-06 0.0000000000000000e+00  -5.0385140366091308e-06 9.7636502061377896e-07 0.0000000000000000e+00  -1.8584227618660553e-06 8.0708224620568633e-07 0.0000000000000000e+00  -7.4526561237964981e-06 1.7495513314758207e-06 0.0000000000000000e+00  -1.5260792734322843e-05 1.6678294670839729e-06 0.0000000000000000e+00  -9.1512144162133654e-06 9.4117193796446413e-06 0.0000000000000000e+00  1.5496847257524483e-07 -7.6769043201237529e-06 0.0000000000000000e+00  3.3035644702840475e-06 -2.2466712699587429e-06 0.0000000000000000e+00  -4.6635791246382518e-07 3.1560481064509677e-06 0.0000000000000000e+00  7.5973132529934742e-06 -1.1622357095310978e-05 0.0000000000000000e+00  4.2170293092234345e-06 -3.5649378422603634e-05 0.0000000000000000e+00  -3.4614374391511646e-05 2.8928091401868369e-05 0.0000000000000000e+00  -2.6024874764504993e-05 -4.4255909147038339e-06 0.0000000000000000e+00  -3.4989424843207882e-05 -9.9996021178467897e-06 0.0000000000000000e+00  4.1403876923909718e-06 2.1352055791728789e-05 0.0000000000000000e+00  1.1556968353712892e-05 2.2223019186560612e-05 0.0000000000000000e+00  -1.3942642702439672e-06 -7.7323531460028428e-08 0.0000000000000000e+00  1.5000026743634147e+00 -4.3673925650184678e-08 0.0000000000000000e+00  -2.4126546250729226e-06 -5.3302859869563642e-08 0.0000000000000000e+00  -2.5719672888510945e-06 2.3430067746206457e-07 0.0000000000000000e+00  -2.6515485639872533e-06 -2.0612327371757244e-07 0.0000000000000000e+00  -3.3362783353636681e-07 3.1621415155351716e-06 0.0000000000000000e+00  1.4840988548144673e-06 -2.9361140768870810e-06 0.0000000000000000e+00  1.1117068338558976e-06 1.4494027449299071e-07 0.0000000000000000e+00  2.4914227504574255e-07 -2.6167743973446382e-09 0.0000000000000000e+00  3.7917115052990460e-06 -3.9568095111986644e-08 0.0000000000000000e+00  2.6408366010495839e-06 1.9450454240045128e-08 0.0000000000000000e+00  5.3664996324029579e-07 3.5891627453220323e-08 0.0000000000000000e+00  -7.6001781544930382e-07 -7.1735289944587971e-09 0.0000000000000000e+00  -2.9219337454517437e-06 3.4171885864393235e-08 0.0000000000000000e+00  -8.9127272170733337e-06 3.0321182619698657e-08 0.0000000000000000e+00  1.0871524753547792e+00 4.4344675308615564e-06 0.0000000000000000e+00  1.0871531014941707e+00 -3.4954262347094974e-05 0.0000000000000000e+00  1.0861271237956140e+00 -2.0520850405113776e-03 0.0000000000000000e+00  1.0871711065741869e+00 -1.8708487061580033e-04 0.0000000000000000e+00  1.0872457369147017e+00 1.2171911463622351e-04 0.0000000000000000e+00  9.9399049297178133e-01 -4.3264260334538771e-02 0.0000000000000000e+00  1.0871413421775633e+00 2.6457516758690503e-05 0.0000000000000000e+00  -4.2561358179380928e-06 9.7361324094446349e-08 0.0000000000000000e+00  -2.5021085820061733e-06 6.9468622795459682e-08 0.0000000000000000e+00  -1.6422110274941501e-06 9.8267424140722247e-08 0.0000000000000000e+00  1.0868952400382701e+00 -7.2655946911889964e-05 0.0000000000000000e+00  -8.9151445218332268e-07 -1.0211503886440185e-07 0.0000000000000000e+00  -3.1130068292059652e-07 3.9654700466282668e-08 0.0000000000000000e+00  1.0872399672565343e+00 1.8458755087443647e-05 0.0000000000000000e+00  4.3013934893168661e-06 8.5842652819645955e-08 0.0000000000000000e+00  -1.7580540350290621e-07 -5.3393656558827225e-08 0.0000000000000000e+00  1.2243639035385322e-06 9.2882956324359367e-08 0.0000000000000000e+00  -4.0283976835872670e-06 4.5712896269252306e-08 0.0000000000000000e+00  -3.5144530550693911e-07 2.3953558637787350e-08 0.0000000000000000e+00  -9.1605080661711812e-06 -1.3534648404305621e-06 0.0000000000000000e+00  6.8013774329375292e-06 -4.6281138441735118e-06 0.0000000000000000e+00  6.9846833392726057e-06 4.7004936256147005e-06 0.0000000000000000e+00  -9.3691880442532318e-06 2.5982135316531647e-07 0.0000000000000000e+00  1.0894326777620874e-06 1.3111534174282550e-08 0.0000000000000000e+00  1.0869192365833775e+00 -4.4074093157552458e-04 0.0000000000000000e+00  -8.9406978580669261e-07 -4.2486397976780407e-08 0.0000000000000000e+00  1.0871069973154421e+00 -4.4263692522822907e-05 0.0000000000000000e+00  1.0874471638552861e+00 -3.7119768394190856e-04 0.0000000000000000e+00  1.0870884075007030e+00 -3.4728322291157104e-05 0.0000000000000000e+00  1.0873193569521562e+00 4.0814006964118870e-05 0.0000000000000000e+00  1.5395154494980099e+00 -9.9666077424586566e-02 0.0000000000000000e+00  1.0871401525211357e+00 -8.3511930904200981e-05 0.0000000000000000e+00  1.0871125318187820e+00 8.5651050232993801e-05 0.0000000000000000e+00  1.0870711209297550e+00 1.2420573017573236e-04 0.0000000000000000e+00  1.0925046268119984e+00 -1.3688058864062916e-02 0.0000000000000000e+00  1.0874954470956011e+00 1.9122059430569363e-03 0.0000000000000000e+00  1.4834125793092814e+00 2.5545022728766942e-01 0.0000000000000000e+00  1.1249986258949640e+00 1.3563196612665053e-07 0.0000000000000000e+00  1.1250034069687365e+00 -3.6678983674072905e-07 0.0000000000000000e+00  1.3273372898281506e+00 -2.9690683104862192e-01 0.0000000000000000e+00  1.1293937894288151e+00 6.4461806503178343e-02 0.0000000000000000e+00  9.6333174020453349e-01 4.6213907559337486e-01 0.0000000000000000e+00  1.0872433186194193e+00 6.8356419367309888e-05 0.0000000000000000e+00  1.0862161353795097e+00 -4.4254868342401700e-04 0.0000000000000000e+00  1.0869448390717888e+00 -2.4907577397013195e-07 0.0000000000000000e+00  1.0870685579616073e+00 1.6864245475425638e-04 0.0000000000000000e+00  1.0869729396856762e+00 -1.7537430236268146e-05 0.0000000000000000e+00  1.0881038034333821e+00 -2.1612120549362171e-04 0.0000000000000000e+00  1.1555517354012943e+00 -5.7333435859476839e-02 0.0000000000000000e+00  1.0871882252466147e+00 1.0380772377557024e-04 0.0000000000000000e+00  1.0867107064143258e+00 -1.0058374070105738e-05 0.0000000000000000e+00  1.0868824927206910e+00 -1.6532294730751422e-04 0.0000000000000000e+00  1.0867279483613006e+00 2.8455413267010560e-04 0.0000000000000000e+00  1.0872314378031138e+00 -1.8979907894839531e-04 0.0000000000000000e+00  1.0869923284458036e+00 7.5769677886119375e-05 0.0000000000000000e+00  1.0864822667236926e+00 -1.8585635524875362e-04 0.0000000000000000e+00  1.0857732706760206e+00 2.1820546888050340e-04 0.0000000000000000e+00  -1.1011565274066050e-01 -9.8431808070570073e-02 0.0000000000000000e+00  1.5233527177829285e+00 1.4509956331097143e-01 0.0000000000000000e+00  1.0740404407829851e+00 -1.8568971755908879e-03 0.0000000000000000e+00  1.0871387668417676e+00 1.7074645464121225e-05 0.0000000000000000e+00  1.1830125680514023e+00 2.4735636938959635e-01 0.0000000000000000e+00  1.0872921308453192e+00 -8.6317477453256314e-05 0.0000000000000000e+00  1.0872098227368694e+00 -9.1033653896924150e-04 0.0000000000000000e+00  1.3892844764185117e+00 1.9602749989524099e-01 0.0000000000000000e+00  1.0871893734221496e+00 4.6962676017267442e-05 0.0000000000000000e+00  -7.6152695760193974e-06 7.7774245133642616e-07 0.0000000000000000e+00  1.3472917738851218e+00 5.5095749771460867e-02 0.0000000000000000e+00  1.1452666126735047e+00 -2.5028995390573500e-01 0.0000000000000000e+00  1.0895350013762812e+00 -3.0420263267622958e-03 0.0000000000000000e+00  -1.1983346341174886e-06 -1.7220844922043468e-08 0.0000000000000000e+00  1.0854453156133084e+00 8.3239400091715814e-04 0.0000000000000000e+00  -3.0420636267436196e-06 -3.2532597958305903e-08 0.0000000000000000e+00  1.4218741770076896e-05 -6.6913195995576071e-06 0.0000000000000000e+00  1.0871200789103359e+00 -5.9158124087671648e-06 0.0000000000000000e+00  -8.5742187668175034e-06 -1.2603699001682465e-06 0.0000000000000000e+00  1.3295370351529148e+00 -7.0580936289628721e-02 0.0000000000000000e+00  1.0864221081162113e+00 -1.5201120482446478e-04 0.0000000000000000e+00  1.5317585341660325e+00 -8.0237427557357396e-02 0.0000000000000000e+00  -5.2497120211007963e-06 9.4637664401218770e-08 0.0000000000000000e+00  1.7699556645569336e+00 -7.4972758409398627e-02 0.0000000000000000e+00  -1.0856105290017794e-06 5.9033241053340706e-08 0.0000000000000000e+00  1.0863609099599969e+00 -1.7193007298225944e-04 0.0000000000000000e+00  1.3194875942908839e+00 1.5728353779064613e-01 0.0000000000000000e+00  -5.7448541322543224e-06 -5.6785398655030592e-08 0.0000000000000000e+00  1.4996492658389129e+00 -6.0714425954057717e-02 0.0000000000000000e+00  1.3748377440921857e+00 -2.8059411886108876e-01 0.0000000000000000e+00  1.3412316528085140e+00 -1.2277344608399710e-01 0.0000000000000000e+00  1.3733750179573683e+00 1.2278995728222443e-01 0.0000000000000000e+00  2.1909902199980492e-06 -5.8887263694724715e-07 0.0000000000000000e+00  1.0871865497999913e+00 -1.0996877871414923e-05 0.0000000000000000e+00  1.0858710715034832e+00 -1.3994710641106138e-04 0.0000000000000000e+00  1.7693587911556309e-06 1.4182644124402450e-07 0.0000000000000000e+00  1.0870939357062490e+00 -3.2639451031802825e-05 0.0000000000000000e+00  1.0871731928110038e+00 -3.4980885863717049e-04 0.0000000000000000e+00  1.0859823237890522e+00 -5.9901386732735340e-04 0.0000000000000000e+00  1.0871507869671146e+00 -5.7700210182460337e-05 0.0000000000000000e+00  1.0856203921246406e+00 -2.7527502621636237e-04 0.0000000000000000e+00  1.9115212443297800e+00 1.0287133292005575e-01 0.0000000000000000e+00  1.0870797520082722e+00 -2.0727408383155511e-04 0.0000000000000000e+00  5.3377258208556547e-06 3.0650121892250427e-08 0.0000000000000000e+00  -1.1404331211395524e-07 -9.4134686300145134e-08 0.0000000000000000e+00  -4.2206359899003519e-06 -1.8146579628883058e-06 0.0000000000000000e+00  6.5625220240065185e-01 -6.0457479565051246e-08 0.0000000000000000e+00  -2.2170564800304682e-06 5.2287433146086495e-08 0.0000000000000000e+00  1.0855211573135775e+00 4.4498817498817424e-04 0.0000000000000000e+00  1.0855897473094220e+00 1.8050370186279082e-02 0.0000000000000000e+00  1.0871817573067821e+00 -1.0341736382006038e-05 0.0000000000000000e+00  -7.0099017800320972e-07 1.0272214575355444e-08 0.0000000000000000e+00  -6.1350659730692179e-06 -2.9184640115551183e-08 0.0000000000000000e+00  1.0747698019917472e-06 6.1120105949858132e-08 0.0000000000000000e+00  -2.8934507998502003e-06 -3.5464939379169730e-08 0.0000000000000000e+00  -2.0754844099741594e-06 5.5197726206747502e-08 0.0000000000000000e+00  -7.7906349537855778e-06 -3.4292022469090627e-07 0.0000000000000000e+00  -9.8532105643604004e-06 -3.6542494361017404e-07 0.0000000000000000e+00  -1.8355651732650682e-06 3.5952506548522058e-08 0.0000000000000000e+00  -2.2338935140739348e-06 6.3858238805910688e-07 0.0000000000000000e+00  -4.0382762123958859e-06 -2.0063925667860888e-06 0.0000000000000000e+00  1.9840956889951011e-05 6.1455613774817450e-06 0.0000000000000000e+00  -4.7078255118173647e-06 1.7982875372191132e-06 0.0000000000000000e+00  1.5060596645354401e-06 -1.1208355433306869e-07 0.0000000000000000e+00  -1.6267128599506490e-06 9.1552459879324777e-08 0.0000000000000000e+00  1.6536672278534151e-06 1.7095113242557037e-06 0.0000000000000000e+00  -3.3706826464037210e-06 -7.9230120383437879e-08 0.0000000000000000e+00  -1.4186148398684294e-06 3.0087823731953811e-08 0.0000000000000000e+00  -7.1229550096863533e-06 -2.4988493788371112e-08 0.0000000000000000e+00  9.7324597831087856e-01 -1.4368269094689198e-01 0.0000000000000000e+00  1.0802196727839792e+00 5.8909962846642489e-04 0.0000000000000000e+00  1.0824871703553676e+00 9.4691087713447364e-05 0.0000000000000000e+00  1.0836083777943104e+00 1.7285457834479006e-05 0.0000000000000000e+00  1.4619366304058308e+00 4.9740533421598947e-02 0.0000000000000000e+00  5.4640094885783919e-02 -2.5149719948670840e-01 0.0000000000000000e+00  6.5503824658987120e-01 -1.6478945741657933e-01 0.0000000000000000e+00  1.0866712503152809e+00 -7.7179459881350282e-04 0.0000000000000000e+00  1.0856032173031349e+00 -2.5421431797100180e-04 0.0000000000000000e+00  1.0871278579926540e+00 -4.8141400114989987e-05 0.0000000000000000e+00  1.0872951688998380e+00 -1.0471692225322544e-04 0.0000000000000000e+00  1.0803509073406157e+00 9.2387590563938575e-04 0.0000000000000000e+00  1.0871712974552432e+00 7.7225221253228812e-05 0.0000000000000000e+00  1.0871356617478491e+00 4.4932591677347101e-05 0.0000000000000000e+00  1.0870982165147813e+00 6.3573578886096769e-05 0.0000000000000000e+00  1.0871375376455059e+00 8.9363017716621079e-06 0.0000000000000000e+00  1.0815865677588057e+00 -6.3047483126786683e-04 0.0000000000000000e+00  1.0841243235373006e+00 -1.1627422809597858e-04 0.0000000000000000e+00  1.0833379328273207e+00 -9.2506493951372980e-04 0.0000000000000000e+00  1.0816462378760663e+00 -6.2784597014517939e-04 0.0000000000000000e+00  6.5061441645415730e-01 -8.1562425430697347e-02 0.0000000000000000e+00  1.1142511677359752e+00 -1.0392016499265015e-02 0.0000000000000000e+00  1.0846086587431796e+00 -5.8722795776936223e-03 0.0000000000000000e+00  1.0716915697057756e+00 -2.8326507035123877e-02 0.0000000000000000e+00  1.0990874788809208e+00 -1.6660191162917562e-01 0.0000000000000000e+00  1.0869591679970363e+00 -1.6732257768087183e-04 0.0000000000000000e+00  1.3940487532899666e+00 -2.4414597339532770e-02 0.0000000000000000e+00  1.3389138229619826e+00 5.9326980618375880e-02 0.0000000000000000e+00  1.0871581593328303e+00 -5.4689990379766266e-05 0.0000000000000000e+00  1.2733597144228928e+00 -9.5194155817151724e-02 0.0000000000000000e+00  1.4064953339017545e+00 -1.2333148466372029e-01 0.0000000000000000e+00  1.0872355482069329e+00 -1.0260087587225543e-05 0.0000000000000000e+00  4.2551899410501515e-01 1.4404646559894813e-01 0.0000000000000000e+00  7.6737568529471745e-01 1.6266716051178773e-01 0.0000000000000000e+00  1.0872397539712808e+00 -5.1985215168174952e-06 0.0000000000000000e+00  1.0840306330611640e+00 2.7882429045765890e-04 0.0000000000000000e+00  1.0871037523198879e+00 1.1524939947761838e-05 0.0000000000000000e+00  1.0872871543215208e+00 -2.6399594694030047e-04 0.0000000000000000e+00  1.0688441940026099e+00 -2.5772222721072808e-03 0.0000000000000000e+00  1.0842972265056612e+00 2.0623754812692166e-04 0.0000000000000000e+00  1.0871361020993973e+00 6.9985861765753777e-06 0.0000000000000000e+00  1.0838190874286611e+00 -4.1029706384890750e-04 0.0000000000000000e+00  1.0825764531609752e+00 8.1802121838410685e-05 0.0000000000000000e+00  6.5624939276568339e-01 1.8725780589833353e-07 0.0000000000000000e+00  1.0919541145948006e+00 1.1237171280740542e-03 0.0000000000000000e+00  1.3914914471155886e+00 3.2304572402205557e-02 0.0000000000000000e+00  1.0880338200370965e+00 -1.4045461770637816e-03 0.0000000000000000e+00  1.0471629123881618e+00 4.7721966049781454e-02 0.0000000000000000e+00  1.1754996568941087e+00 3.5176295594466188e-02 0.0000000000000000e+00  1.0766944431343122e+00 6.6408372791003226e-04 0.0000000000000000e+00  9.7745986853671118e-01 1.7157571919603035e-01 0.0000000000000000e+00  1.0873526223860523e+00 -1.7460061526809311e-04 0.0000000000000000e+00  1.1393106319446231e+00 1.9712024067058254e-01 0.0000000000000000e+00  1.0871112504543612e+00 6.7899707234372745e-05 0.0000000000000000e+00  1.0872152605979823e+00 1.3523020083278195e-04 0.0000000000000000e+00  1.4060229897488419e+00 -9.2544841896281538e-03 0.0000000000000000e+00  1.5651569245835690e+00 -2.6063469033750175e-01 0.0000000000000000e+00  1.0871298126389106e+00 -7.9413252165511200e-06 0.0000000000000000e+00  1.0872074428353786e+00 1.6503606520688508e-04 0.0000000000000000e+00  1.0873217884604731e+00 2.4775257526463780e-04 0.0000000000000000e+00  1.0791294727867156e+00 -4.5715546678550982e-04 0.0000000000000000e+00  1.0860194099182283e+00 -2.4986177564675807e-04 0.0000000000000000e+00  9.4087440994622407e-01 9.1732941080140934e-02 0.0000000000000000e+00  1.0870806760824203e+00 9.9659014319853072e-06 0.0000000000000000e+00  1.2250607559301228e+00 1.5840069589247810e-01 0.0000000000000000e+00  1.0830805381300870e+00 -4.9571319909106346e-04 0.0000000000000000e+00  1.0865505976568435e+00 -3.7088957361946958e-04 0.0000000000000000e+00  1.2442992132974677e+00 1.2435645437713967e-01 0.0000000000000000e+00  1.0869628533197779e+00 -2.6628303778079008e-04 0.0000000000000000e+00  1.0870931919074320e+00 9.2613387626473267e-05 0.0000000000000000e+00  1.0871463876568142e+00 -2.5580698792506528e-05 0.0000000000000000e+00  1.0870656382813011e+00 7.3229202428569171e-06 0.0000000000000000e+00  1.0870627452925647e+00 6.6708889204238886e-05 0.0000000000000000e+00  1.0564825072362432e+00 7.1049156257766213e-04 0.0000000000000000e+00  1.0552865023843503e+00 -1.1115119385749930e-03 0.0000000000000000e+00  1.0677683950267045e+00 -7.2844423002248193e-04 0.0000000000000000e+00  1.0789422581059889e+00 4.8679498775802232e-04 0.0000000000000000e+00  1.0870521711817902e+00 1.8736229035480853e-05 0.0000000000000000e+00  1.0645624168647549e+00 -8.5982124746411596e-05 0.0000000000000000e+00  1.0871324272617382e+00 9.3371314631457949e-06 0.0000000000000000e+00  1.0872096173148778e+00 3.0289616220108297e-05 0.0000000000000000e+00  1.0871419358955019e+00 -5.4959597571363440e-04 0.0000000000000000e+00  1.0739116759322234e+00 -1.6867284756495043e-03 0.0000000000000000e+00  1.0871302936685538e+00 1.4600023173970214e-05 0.0000000000000000e+00  1.0870086135039096e+00 -4.6331367087337301e-05 0.0000000000000000e+00  1.0347733810932682e+00 6.3496008027310170e-04 0.0000000000000000e+00  1.0875890334895544e+00 -2.4880656057554591e-04 0.0000000000000000e+00  1.0765579065010147e+00 6.8466436585760471e-04 0.0000000000000000e+00  1.0762726332064274e+00 -1.5958678632859463e-04 0.0000000000000000e+00  7.3747951254824706e-01 -7.7694431420199953e-02 0.0000000000000000e+00  1.0967318260055354e+00 -3.6725224908824897e-03 0.0000000000000000e+00  1.0534813898425057e+00 -1.0046037260707367e-03 0.0000000000000000e+00  1.0866722524804855e+00 -3.8618442186130281e-04 0.0000000000000000e+00  1.5372307208003644e+00 4.6048204740495047e-01 0.0000000000000000e+00  1.0172639762077655e+00 1.5985028303586324e-01 0.0000000000000000e+00  1.0705716143756712e+00 6.3454890147297295e-05 0.0000000000000000e+00  1.2685377327068792e+00 -1.2471375277329556e-01 0.0000000000000000e+00  1.4571548226270739e+00 -5.3600633094058758e-01 0.0000000000000000e+00  1.0661227817205390e+00 8.7625404076050752e-04 0.0000000000000000e+00  1.0759775764738571e+00 4.3332488176411123e-04 0.0000000000000000e+00  1.0873665862099591e+00 -2.3184502494406469e-04 0.0000000000000000e+00  9.1615494982679402e-01 1.2373492536202817e-01 0.0000000000000000e+00  1.4062545674360996e+00 3.2840554494620430e-07 0.0000000000000000e+00  1.0872412629224586e+00 -3.3623622561284744e-05 0.0000000000000000e+00  1.0708678459416010e+00 -8.2457815432286446e-04 0.0000000000000000e+00  1.4062508611313631e+00 -2.9825213797231482e-07 0.0000000000000000e+00  1.0719578198983197e+00 4.7829906268035912e-04 0.0000000000000000e+00  1.8561407025987473e+00 -2.9909532028363089e-01 0.0000000000000000e+00  1.0870660538058610e+00 3.7864316582187198e-05 0.0000000000000000e+00  7.1706454935030650e-01 8.5563477358729489e-02 0.0000000000000000e+00  1.0871918085424153e+00 7.5884112872187651e-05 0.0000000000000000e+00  1.0660963430534258e+00 9.9758133133984531e-04 0.0000000000000000e+00  1.0082754931182771e+00 -2.2866086385088833e-04 0.0000000000000000e+00  1.0872501707644433e+00 -7.3205485035491536e-05 0.0000000000000000e+00  1.0101015775236777e+00 -5.5308263702162652e-04 0.0000000000000000e+00  1.0553721764929793e+00 -5.3255059863024272e-04 0.0000000000000000e+00  1.32610838802