<?xml version="1.0"?>
<VTKFile type="UnstructuredGrid"  version="0.1"  >
<UnstructuredGrid>
<Piece  NumberOfPoints="2426" NumberOfCells="4534">
<Points>
<DataArray  type="Float64"  NumberOfComponents="3"  format="ascii">0 0.41 0  0 0 0  2.2 0 0  2.2 0.41 0  0.2404508497187474 0.2293892626146237 0  0.25 0.2 0  0.2404508497187474 0.1706107373853764 0  0.2154508497187474 0.1524471741852423 0  0.1845491502812526 0.1524471741852423 0  0.1595491502812526 0.1706107373853764 0  0.15 0.2 0  0.1595491502812526 0.2293892626146237 0  0.1845491502812527 0.2475528258147577 0  0.2154508497187474 0.2475528258147577 0  0.5404508497187474 0.2293892626146237 0  0.55 0.2 0  0.5404508497187474 0.1706107373853764 0  0.5154508497187473 0.1524471741852423 0  0.4845491502812526 0.1524471741852423 0  0.4595491502812526 0.1706107373853764 0  0.45 0.2 0  0.4595491502812526 0.2293892626146237 0  0.4845491502812526 0.2475528258147577 0  0.5154508497187473 0.2475528258147577 0  1.1 0 0  0 0.205 0  1.1 0.41 0  0.55 0 0  0.55 0.41 0  0.275 0 0  0.275 0.41 0  1.65 0.41 0  1.65 0 0  1.375 0 0  1.375 0.41 0  1.925 0 0  1.925 0.41 0  0.8250000000000001 0.41 0  0.8250000000000001 0 0  1.5125 0.205 0  1.7875 0.205 0  0.9625000000000001 0.205 0  1.2375 0.205 0  2.2 0.205 0  0.7560964076246335 0.2151713709677419 0  1.99375 0.2152743902439024 0  2.0625 0 0  0.6875 0 0  2.0625 0.41 0  2.2 0.3075 0  0.6875 0.41 0  1.7875 0.41 0  1.375 0.1486128048780488 0  1.5125 0 0  1.7875 0 0  1.5125 0.41 0  0.9625000000000001 0 0  0.9625000000000001 0.41 0  0.4125 0 0  0.1375 0 0  0.1375 0.41 0  0.4125 0.41 0  1.2375 0 0  1.1 0.1486128048780487 0  1.2375 0.41 0  1.65 0.1486128048780487 0  1.126715909090909 0.2793064024390244 0  1.676715909090909 0.2793064024390244 0  1.348284090909091 0.2793064024390244 0  0.34375 0.3032389320646208 0  1.894702181800738 0.1282910975492754 0  2.092797818199262 0.1282910975492754 0  1.85625 0.3075 0  0.8630851210521902 0.286932093388664 0  0.89375 0.1025 0  0.35 0.1090282786671641 0  0 0.3075 0  0 0.1025 0  0.6526217841291382 0.288229645480046 0  0.7562500000000001 0.09660248895515888 0  0.6568633732316684 0.1557582854763441 0  2.099172119769978 0.25625 0  1.002356446954348 0.1010393851523063 0  1.99375 0.08395950269330846 0  1.459960956013612 0.3075 0  1.569025960719943 0.2986889805672169 0  1.03125 0.3278689922742084 0  0.75625 0.3247156761655783 0  1.959375 0.3126371951219512 0  1.749222215368287 0.1025 0  1.275777784631713 0.1025 0  2.2 0.1025 0  1.225938124459196 0.3075 0  1.550777784631713 0.1025 0  1.44375 0.07430640243902442 0  1.16875 0.07430640243902437 0  0.3528655045338512 0.2063263890916129 0  0.5890337614812103 0.08775733857679162 0  0.8504912436891263 0.190072835691683 0  1.899250267340833 0.2229966846119207 0  0.1020898364287272 0.3140258291809757 0  1.766482954545455 0.2934032012195123 0  1.051658316544432 0.2265720188842194 0  0.2 0.3400647632937836 0  1.421109702350723 0.2261157654379721 0  0.4812500000000001 0.41 0  0.4324401666997539 0.3216425986889796 0  0.098916018031319 0.09171660955420841 0  0.9508742791313441 0.2921736960864468 0  2.13125 0 0  2.118919042110979 0.3422084711244843 0  1.30625 0.41 0  0.20625 0 0  1.597888256393107 0.2173787389261347 0  0.4812500000000001 0 0  0.4324082967851086 0.08384041677422771 0  1.829299675393195 0.07400700849299596 0  0.568219932524165 0.3212274660843853 0  1.71875 0.41 0  0.268005226542646 0.08512186835670006 0  1.16875 0.41 0  2.038220665644273 0.332420740103091 0  0.6678017527842831 0.07701763866051195 0  0.89375 0.41 0  0.5111435174287687 0.07335351331957608 0  0.176193934632343 0.0734896648625108 0  0.07390688010811153 0.1697064032433452 0  0.05452951551825875 0.25625 0  0.61875 0.41 0  1.452769549894695 0.1548122580621249 0  1.369219062229598 0.07430640243902442 0  1.30625 0 0  1.720943423819132 0.1714577452753128 0  1.157188124459196 0.205 0  1.094219062229598 0.07430640243902437 0  1.304056576180868 0.1714577452753128 0  1.67579304192913 0.07430640243902437 0  0.2672907219039591 0.3037570723459566 0  1.209670467133757 0.1362100266964769 0  1.58125 0 0  1.03125 0 0  0.06875000000000001 0.41 0  0 0.35875 0  1.58125 0.41 0  1.631724228912893 0.3381867502687533 0  0.8240147050827157 0.1225233169495944 0  1.825608881788174 0.14499488549201 0  1.85625 0 0  1.44375 0 0  1.44375 0.41 0  1.85625 0.41 0  2.13125 0.41 0  0.7562500000000001 0.41 0  0.7562500000000001 0 0  0.89375 0 0  0.34375 0 0  0.34375 0.41 0  0.20625 0.41 0  0.06875000000000001 0 0  1.16875 0 0  1.03125 0.41 0  0.61875 0 0  1.71875 0 0  1.99375 0 0  1.99375 0.41 0  0.3972301426712326 0.2593842555611471 0  1.340625 0.3489494290853124 0  1.134375 0.3489494290853123 0  1.700180620188976 0.3438659752031281 0  0.5003922072260507 0.341765274319271 0  0.6212513815748759 0.2209216137134851 0  0.6885607720119526 0.215393731583638 0  1.033412357328477 0.1612902025713047 0  2.135782184673599 0.07126652247502523 0  1.668441847249787 0.2129203728327609 0  1.295782514339747 0.2378437748815763 0  1.409375 0.3520314716057996 0  2.129248544730567 0.1906135162504124 0  2.060771381434487 0.1989445750470348 0  2.013252586573865 0.1496169464686054 0  1.942766402200229 0.1734448904596831 0  1.895522487186454 0.06076163953489683 0  2.069553871656643 0.06605731020975725 0  0.9281250000000001 0.3539050257418612 0  1.274680914880868 0.3520219391081363 0  0.3030138498135347 0.2488370856812789 0  0.8223773249563684 0.341761430177996 0  0.9018164060227267 0.2326477848736739 0  0.8143027982392851 0.2440265179987191 0  0.7225087161029304 0.2699907246386231 0  1.614713220494657 0.09473434380863296 0  0.378125 0.3566194660323104 0  0.309375 0.3566194660323104 0  1.72990325744076 0.2380068107952482 0  0.6915936999299305 0.3429472631234433 0  0.6268087624932918 0.3466455500035671 0  1.356580098625191 0.2120393231351682 0  0.3060160055995138 0.1590148921620778 0  0.3954648733249218 0.156380553890791 0  2.034370752044885 0.2668681600792073 0  1.51768709249349 0.3426260931494756 0  1.561883724969884 0.1650446847858835 0  1.197344062229598 0.2523725417393646 0  0.9281250000000001 0.05124999999999999 0  1.804085235518364 0.3468178408964637 0  1.817887819205233 0.2589243285818559 0  0.9107805776841645 0.1653834539923287 0  1.905897727272727 0.3485060975609756 0  0 0.05125 0  0.844212276491354 0.0614201194265309 0  0.378125 0.05244637078450034 0  1.008571329007178 0.2705955969954818 0  0.7724048032149464 0.1559079561351474 0  0.7203054377831548 0.04941826955193545 0  1.192836486056382 0.3562350748565544 0  0.5967108020713719 0.1479294686523888 0  1.28257088594801 0.2944411014911587 0  0.7041890234548132 0.1222025174424443 0  1.474860187679412 0.2504218616229368 0  1.406767003493824 0.2829282258560709 0  0.3201325899091991 0.05890121548989159 0  0.5979220912872258 0.2727591995766724 0  1.845656689180403 0.1998310418452388 0  2.144958525570388 0.2909790873294231 0  2.2 0.15375 0  1.57794966442982 0.3540357145964566 0  0.9483181579620558 0.1214693369582054 0  0.0496154796471391 0.333125 0  1.508991196088596 0.1421783375065625 0  0.09776612425612034 0.2204896805326566 0  1.50436820029908 0.06143401634903343 0  1.223857000523521 0.0823554862453532 0  0.2531953886959507 0.3582003209055908 0  1.153316824384777 0.1289850171317837 0  2.148922302309752 0.1258841779285271 0  1.621993280276081 0.2841214267927899 0  1.550118654119087 0.2461998729100966 0  1.327182649291491 0.1216967252533594 0  1.753125 0.04556020050186112 0  1.271875 0.04556020050186116 0  0.9824282234771738 0.05051969257615314 0  1.039510847866381 0.05683351822678641 0  1.94956388244759 0.1180512551534177 0  1.949997712993411 0.04965831614304109 0  1.771961817615021 0.1530278789497521 0  1.909246823951428 0.2812757146784527 0  1.101974016627944 0.2038045618205013 0  0.7906250000000001 0.0444674049654372 0  1.948575539857022 0.2445328248721197 0  1.697271520964565 0.1233917627620729 0  1.065625 0.3689344961371042 0  1.085849084308977 0.3170853572226867 0  0.9840604787624379 0.3582077516409966 0  1.577403511714593 0.05463601888079143 0  0.05622663515370135 0.05493816910862376 0  0.8762396958822678 0.3392249777398821 0  1.751571320346033 0.3651102912045228 0  1.055327852410105 0.111864799513911 0  0.1583785085108421 0.2994699345738728 0  0.1455283439499995 0.3542795598723423 0  2.2 0.35875 0  0.225705107073232 0.05084786997482401 0  0.1455852234589313 0.1166494778469164 0  1.466879772203159 0.3611261772912453 0  1.990280163552011 0.3564754268533217 0  1.17471064520912 0.2990917256188288 0  0.7221925551074015 0.1739659241003985 0  0 0.25625 0  2.2 0.25625 0  2.2 0.05125 0  0 0.15375 0  1.853978576207987 0.35875 0  0.21965520498276 0.1015543880164422 0  1.515638456102889 0.2882700110184686 0  0.09048297387599738 0.3637717362208066 0  2.150453692751374 0.2387066338105111 0  1.323782677156475 0.04897634338873398 0  1.409375 0.03715320121951221 0  1.406484531114799 0.1087852750766809 0  1.134375 0.03715320121951218 0  1.627401732573545 0.04552157221025036 0  0.446875 0.3713289093361426 0  2.045405893604797 0.1105340662939892 0  1.255408269734577 0.1577307500159216 0  2.028125 0.03707597992059326 0  0.04420832937638274 0.128125 0  0.5817551710628505 0.3702615006034757 0  0.1197849154434487 0.2663398672460083 0  1.248258025468107 0.2565907092181813 0  0.1300647302703173 0.0508462728378621 0  0.7738123537510222 0.2761231499240648 0  1.203125 0.0366132337404304 0  0.5444207041612499 0.111205399508622 0  0.8016457771828226 0.1964238426015905 0  2.072662025974815 0.2975086504196739 0  0.4019040438866802 0.2103993403217561 0  0.4677372330974851 0.04827477407630658 0  0.8677218578847617 0.1432970430140788 0  1.058011122005847 0.2758866204059919 0  0.4429405887974043 0.2746184809910084 0  0.5843750000000001 0.03726989681835222 0  0.6318596133730142 0.1128692182767254 0  0.4862628454464408 0.2957029785303028 0  0.7805186758662764 0.3673578380827891 0  1.887722846421017 0.1760882698830035 0  0.3498893058880703 0.256189258793856 0  1.472640588990488 0.1118278026240017 0  1.865937103925594 0.2604137786483804 0
[...]
<PointData  Vectors="f_37"> 
<DataArray  type="Float64"  Name="f_37"  NumberOfComponents="3" format="ascii">-6.0622950556420738e-07 2.0612909967903240e-08 0.0000000000000000e+00  3.6636156999672170e-07 -2.9480230575031144e-08 0.0000000000000000e+00  -4.2739078604816543e-07 -1.5607402258017243e-09 0.0000000000000000e+00  1.5184165329413966e-06 3.8003373398004099e-09 0.0000000000000000e+00  -9.5162556799571986e-07 1.3102139436947407e-07 0.0000000000000000e+00  -8.1298851632719521e-07 4.6917216959289050e-07 0.0000000000000000e+00  -1.7091306685719947e-06 3.9532359189944647e-07 0.0000000000000000e+00  1.3600631672354538e-06 2.6357880326702791e-07 0.0000000000000000e+00  2.8281905291522636e-06 -7.0997480057124415e-07 0.0000000000000000e+00  -1.2206901459010010e-06 1.7887723201658966e-07 0.0000000000000000e+00  -1.7474894319935401e-06 1.3387840978882343e-06 0.0000000000000000e+00  1.0624302805066840e-06 2.1883723119160722e-06 0.0000000000000000e+00  -3.5782406163662603e-06 -1.5065841233732690e-06 0.0000000000000000e+00  -3.7515379073273041e-06 -8.4351411029457751e-07 0.0000000000000000e+00  -8.6245207066729741e-07 3.8862575415837527e-08 0.0000000000000000e+00  -1.2751677437954491e-06 1.7715215489339692e-06 0.0000000000000000e+00  -5.0530064643965235e-06 -7.7984273982498241e-08 0.0000000000000000e+00  -5.4605280117075899e-06 -6.2613951131224556e-07 0.0000000000000000e+00  -3.7313729583036604e-06 6.6873631388018450e-07 0.0000000000000000e+00  1.3896480203104337e-06 -2.1269390806431794e-06 0.0000000000000000e+00  -1.3734953342724904e-06 -1.9751275256436059e-06 0.0000000000000000e+00  -2.9670683964185224e-06 -9.4410271684558166e-07 0.0000000000000000e+00  1.5410689373942970e-06 1.7784706270347971e-08 0.0000000000000000e+00  2.3033402488308342e-06 -3.7189007101527144e-08 0.0000000000000000e+00  1.6179663044157868e-06 9.4841111013910405e-07 0.0000000000000000e+00  1.5000025445614342e+00 8.4697994638689669e-08 0.0000000000000000e+00  -6.3401075147117317e-06 2.7596201710017393e-07 0.0000000000000000e+00  -1.4285050407776656e-06 -1.4896472944174317e-07 0.0000000000000000e+00  -1.6675442337859699e-06 -1.6564466931356703e-08 0.0000000000000000e+00  -2.7219586334421323e-06 1.0202545833183729e-07 0.0000000000000000e+00  -9.7134840183667039e-07 -1.8775389173154197e-08 0.0000000000000000e+00  9.4807741728440826e-07 -3.6120427405052697e-07 0.0000000000000000e+00  2.4825038790120259e-06 -7.6812525219554636e-07 0.0000000000000000e+00  7.0048116481028986e-06 -7.0661068978177897e-07 0.0000000000000000e+00  -3.5254119536963151e-06 -7.2560352101407435e-07 0.0000000000000000e+00  -1.0832774988023416e-07 -5.3425416119370167e-08 0.0000000000000000e+00  -5.6391205851704175e-07 -1.4191726009500973e-07 0.0000000000000000e+00  3.5979289428738645e-06 4.0718990640296291e-07 0.0000000000000000e+00  -7.2837816825274575e-06 4.4323731111030103e-07 0.0000000000000000e+00  9.5826941092366580e-01 6.4075575927110856e-02 0.0000000000000000e+00  1.0805178575058676e+00 7.0391401121513861e-02 0.0000000000000000e+00  6.1813240513970225e-01 -6.4974053977868290e-02 0.0000000000000000e+00  9.8946694128820045e-01 -3.8533698392689900e-02 0.0000000000000000e+00  1.2445403976001874e+00 -8.7493763425628285e-03 0.0000000000000000e+00  2.8855031343079135e-01 -2.1853175485263825e-02 0.0000000000000000e+00  1.2112749169094945e+00 -2.6065557891463757e-02 0.0000000000000000e+00  -1.8269826014075418e-06 3.5434201257636269e-10 0.0000000000000000e+00  -6.2026568050632817e-07 -2.0107476741516189e-08 0.0000000000000000e+00  -1.1082204325969230e-06 9.2193343141667780e-08 0.0000000000000000e+00  1.1969865676560330e+00 -5.1199869497414860e-03 0.0000000000000000e+00  -1.0159790117386228e-06 1.5590188787871148e-07 0.0000000000000000e+00  -1.5744497645928555e-06 3.0153342298118846e-07 0.0000000000000000e+00  1.3544870004289120e+00 1.4493088841137040e-03 0.0000000000000000e+00  -2.3970433861270004e-06 7.6474454571528806e-07 0.0000000000000000e+00  -7.6492710520664940e-07 6.4110706123955064e-07 0.0000000000000000e+00  1.9132183763437627e-06 7.4260478402770421e-07 0.0000000000000000e+00  1.6847375688656059e-06 -7.7376003463236937e-07 0.0000000000000000e+00  -2.2713435454572339e-06 -3.4355458783964194e-07 0.0000000000000000e+00  -4.6346701995532166e-07 7.4644600391570304e-09 0.0000000000000000e+00  2.9377570921129695e-07 6.3241060581802324e-08 0.0000000000000000e+00  6.4726078720954312e-07 1.3482265548151397e-07 0.0000000000000000e+00  -2.9647195824876028e-06 1.0963514319156707e-07 0.0000000000000000e+00  -3.5640788720622323e-06 2.9186522127982614e-08 0.0000000000000000e+00  1.4332128952506593e+00 4.2228770222894403e-02 0.0000000000000000e+00  7.9335991216598694e-06 4.6171017054616627e-07 0.0000000000000000e+00  1.2982313498227507e+00 1.7988472352846084e-02 0.0000000000000000e+00  1.6209565177582241e+00 -4.2292944286592291e-02 0.0000000000000000e+00  1.3649048254752363e+00 2.1438596384759326e-02 0.0000000000000000e+00  1.4621194951218419e+00 5.7671217748045227e-02 0.0000000000000000e+00  1.9587114877750602e+00 2.8424833808068432e-02 0.0000000000000000e+00  1.2122986121271171e+00 8.7077818389460408e-04 0.0000000000000000e+00  1.2336928391136488e+00 4.8637881150924087e-03 0.0000000000000000e+00  1.2817650829547476e+00 -1.3643580719370578e-02 0.0000000000000000e+00  1.6424814774369410e+00 -1.1970362687410178e-01 0.0000000000000000e+00  1.5942923275663012e+00 9.0267065634368218e-02 0.0000000000000000e+00  1.8661730462914914e+00 7.3175587800697935e-03 0.0000000000000000e+00  1.1249986001153462e+00 -1.5002530444899855e-07 0.0000000000000000e+00  1.1250027573965233e+00 4.4375541590663658e-08 0.0000000000000000e+00  1.7791469050257285e+00 -1.6237105726471410e-01 0.0000000000000000e+00  1.6259380545097453e+00 1.2029937871297397e-01 0.0000000000000000e+00  7.5450657148915090e-01 1.3234749662718909e-01 0.0000000000000000e+00  1.2648967789676568e+00 -1.7981362969984940e-02 0.0000000000000000e+00  1.4866602623135343e+00 6.9309594644734407e-02 0.0000000000000000e+00  1.1285385941293247e+00 6.3522051043503527e-03 0.0000000000000000e+00  1.4088948760560660e+00 9.2172085832028742e-03 0.0000000000000000e+00  1.4248778034963776e+00 -3.3525185276197314e-02 0.0000000000000000e+00  1.2702604561141508e+00 -4.4046652508303663e-03 0.0000000000000000e+00  1.5527715621538072e+00 -1.3617607959216929e-01 0.0000000000000000e+00  1.2010344182314110e+00 1.2500164842020284e-02 0.0000000000000000e+00  1.2496203026879273e+00 -9.5305018887434801e-03 0.0000000000000000e+00  1.4098714986024392e+00 -2.9604240310144676e-03 0.0000000000000000e+00  1.1842408863830700e+00 7.4835995140668652e-05 0.0000000000000000e+00  1.4206220957027247e+00 -2.1881629571424352e-02 0.0000000000000000e+00  1.3335729003942691e+00 -1.9466755537966448e-02 0.0000000000000000e+00  1.0805357162044686e+00 -3.5811126870576505e-02 0.0000000000000000e+00  1.0862513984745301e+00 -2.9981413036243451e-02 0.0000000000000000e+00  -3.3414437565109661e-01 -2.5800782963135413e-02 0.0000000000000000e+00  1.7735597127969198e+00 1.2674325258941113e-01 0.0000000000000000e+00  3.7490306535521256e-01 -6.3246139038516003e-02 0.0000000000000000e+00  1.2300947749777438e+00 -3.4613007380879808e-02 0.0000000000000000e+00  1.1819350123618675e+00 2.5552607728534588e-01 0.0000000000000000e+00  1.3767833173638764e+00 -3.3750951000329761e-03 0.0000000000000000e+00  8.2383801826318126e-01 5.3194890735461450e-02 0.0000000000000000e+00  1.3810901589513711e+00 2.1741202759736317e-01 0.0000000000000000e+00  9.9048186274981276e-01 2.3882837501068507e-02 0.0000000000000000e+00  4.1630170835741359e-07 -2.7429945377183679e-08 0.0000000000000000e+00  1.8375800980014136e+00 -5.7423180917364813e-02 0.0000000000000000e+00  1.1434876402512766e+00 -2.5632287343613086e-01 0.0000000000000000e+00  1.5578458203095451e+00 -2.0434772545541283e-02 0.0000000000000000e+00  -1.0173078857313080e-06 8.9113965619145402e-09 0.0000000000000000e+00  1.0168861748724984e+00 -3.1896860687338656e-03 0.0000000000000000e+00  -1.8125889233484952e-07 -8.9681680448830042e-07 0.0000000000000000e+00  -6.8844220041684438e-06 2.7646392711958573e-07 0.0000000000000000e+00  1.0651513957110361e+00 -7.4025664295794477e-02 0.0000000000000000e+00  1.4952851918445444e-06 -3.2577704207782821e-08 0.0000000000000000e+00  1.8284032095214520e+00 8.2397782900830510e-02 0.0000000000000000e+00  1.0573271424369650e+00 -2.1618087612012431e-02 0.0000000000000000e+00  1.7978488845769942e+00 -1.1305738121711618e-01 0.0000000000000000e+00  -5.1954209450600719e-06 -2.2038141160224959e-07 0.0000000000000000e+00  1.7982024816741415e+00 -1.4238055231374219e-01 0.0000000000000000e+00  2.8288495336110669e-06 1.1309915859286883e-06 0.0000000000000000e+00  1.1016109833398551e+00 -3.9680131208717192e-03 0.0000000000000000e+00  1.5879368519826740e+00 1.2816646985215169e-01 0.0000000000000000e+00  9.3632245889559142e-07 -2.1058719230567255e-07 0.0000000000000000e+00  1.7194848026237686e+00 7.8109775875500873e-02 0.0000000000000000e+00  1.3595597308966751e+00 -3.0252658776983582e-01 0.0000000000000000e+00  1.3399497923242769e+00 -1.2265799262160344e-01 0.0000000000000000e+00  1.3729988910244348e+00 1.2479967710732558e-01 0.0000000000000000e+00  -1.0122574806030311e-06 -2.0589141618912742e-09 0.0000000000000000e+00  1.2967621999583137e+00 3.2935369788672758e-02 0.0000000000000000e+00  1.0932936356823484e+00 -8.7246661906388023e-03 0.0000000000000000e+00  1.1610844371755211e-06 -9.5320633024392010e-07 0.0000000000000000e+00  1.2233405512835158e+00 5.9052538263393822e-02 0.0000000000000000e+00  8.5899287943630653e-01 9.0648994554206677e-02 0.0000000000000000e+00  1.0656351125104635e+00 -2.2810437133967760e-02 0.0000000000000000e+00  9.9919160176538124e-01 -7.9175486404600981e-02 0.0000000000000000e+00  1.0724639053747089e+00 1.1212240770510919e-02 0.0000000000000000e+00  1.9202941098546025e+00 1.8373069525557709e-01 0.0000000000000000e+00  1.3383938894759915e+00 -2.1056226777908325e-02 0.0000000000000000e+00  -3.6847917677599039e-07 1.5545177947165979e-07 0.0000000000000000e+00  7.4928191273712402e-06 -4.2641114667168034e-07 0.0000000000000000e+00  -7.8217531286671050e-07 -5.6661998501472834e-08 0.0000000000000000e+00  6.5625204622176103e-01 2.2237263235180753e-08 0.0000000000000000e+00  3.5925714684535031e-06 3.0588470598414165e-07 0.0000000000000000e+00  1.0564685466200441e+00 1.7755662501351757e-02 0.0000000000000000e+00  1.6007230798190346e+00 9.1002477087233732e-02 0.0000000000000000e+00  1.2281261496405798e+00 7.2813724558445517e-03 0.0000000000000000e+00  -2.8700047500601992e-06 5.9908814090095570e-08 0.0000000000000000e+00  -8.8570450959487526e-07 5.8513884628648053e-07 0.0000000000000000e+00  -5.7097582218709802e-06 -1.2541042535003818e-07 0.0000000000000000e+00  -7.1132083509988017e-08 1.6704352920270709e-07 0.0000000000000000e+00  -7.3875850864694118e-07 1.2450282050977983e-08 0.0000000000000000e+00  7.7938962370139649e-07 1.6748022044381331e-07 0.0000000000000000e+00  -3.9742893837294168e-06 1.5017685999017323e-07 0.0000000000000000e+00  -5.1628618410297394e-06 -9.5479796455597429e-08 0.0000000000000000e+00  1.9984676390292155e-07 -6.6617642757781264e-09 0.0000000000000000e+00  3.7363209697057744e-07 9.8795134739834610e-09 0.0000000000000000e+00  1.1988449764633930e-06 -7.9823803310073894e-08 0.0000000000000000e+00  -8.2880756714350626e-07 1.4367790116302794e-07 0.0000000000000000e+00  -4.1745120225440224e-06 6.4888676954018342e-07 0.0000000000000000e+00  -8.2386571060203157e-06 -6.8632020257425489e-07 0.0000000000000000e+00  -1.5736492626093706e-06 -1.5975288455169005e-07 0.0000000000000000e+00  1.1745345434172306e-06 7.4712714898557283e-08 0.0000000000000000e+00  -1.0296867106679235e-06 -6.0783677396823067e-08 0.0000000000000000e+00  -4.8078614334755602e-06 -1.2134031361739281e-07 0.0000000000000000e+00  7.1635749681479211e-01 -4.6814386881676794e-02 0.0000000000000000e+00  8.9488496630401237e-01 4.2501816705521826e-02 0.0000000000000000e+00  8.8179777400903325e-01 -2.2988521755614090e-02 0.0000000000000000e+00  1.0113083970833929e+00 1.6112908672020497e-02 0.0000000000000000e+00  1.6590744632232999e+00 -6.7561918892810019e-02 0.0000000000000000e+00  -2.1280544731866386e-03 5.0379439245168975e-03 0.0000000000000000e+00  5.2029737096640570e-02 1.2931437652769216e-02 0.0000000000000000e+00  1.3757572788779597e+00 9.7416986372878586e-02 0.0000000000000000e+00  1.0337202087898281e+00 -2.3929053263478977e-06 0.0000000000000000e+00  1.0162449658773460e+00 -4.8913420616322430e-02 0.0000000000000000e+00  1.3430656221651596e+00 -4.9308199374658523e-02 0.0000000000000000e+00  9.0112747645027791e-01 2.3628274885525272e-02 0.0000000000000000e+00  1.2250209193162100e+00 -3.8798511345515081e-03 0.0000000000000000e+00  1.2031106105162339e+00 -1.1761944391074697e-02 0.0000000000000000e+00  1.2144504702760028e+00 2.3926024998418161e-03 0.0000000000000000e+00  1.1463890594634072e+00 -1.8375867577355015e-02 0.0000000000000000e+00  9.6035627125110745e-01 -2.3060293840204975e-04 0.0000000000000000e+00  9.9463690391359394e-01 7.2540139018802412e-04 0.0000000000000000e+00  8.7420844988588708e-01 -5.6796773062223957e-03 0.0000000000000000e+00  8.0206304681773510e-01 2.5331287453326974e-02 0.0000000000000000e+00  2.3359339006801152e-01 4.9685000044885984e-02 0.0000000000000000e+00  1.2064535047510263e+00 -7.6460173846141219e-02 0.0000000000000000e+00  9.9271660534164474e-01 -1.2481877422182709e-01 0.0000000000000000e+00  1.2030474351559604e+00 -1.5859122893342559e-01 0.0000000000000000e+00  1.5937065069150222e+00 -1.7255712994671427e-01 0.0000000000000000e+00  1.3136881797539062e+00 2.8272111276823508e-02 0.0000000000000000e+00  1.5324656452774301e+00 -2.5486917910632973e-02 0.0000000000000000e+00  1.4834438442861841e+00 3.1796887772085919e-02 0.0000000000000000e+00  1.1141265990534901e+00 2.7619713771013996e-02 0.0000000000000000e+00  1.4346082384583168e+00 -1.1348882734036952e-01 0.0000000000000000e+00  1.4888654399288375e+00 -1.0415687020436361e-01 0.0000000000000000e+00  9.8060029604346166e-01 -7.8361854216064009e-02 0.0000000000000000e+00  8.0581305911754664e-02 -5.8470680866375968e-02 0.0000000000000000e+00  2.9389470227749542e-01 2.0136290377544892e-02 0.0000000000000000e+00  1.2792644593103464e+00 -9.4133608846771414e-03 0.0000000000000000e+00  1.0311966427905233e+00 -9.8986653069272970e-03 0.0000000000000000e+00  1.0597461052775481e+00 -1.8818751561665511e-02 0.0000000000000000e+00  1.5159491962128351e+00 -6.3327137363582739e-02 0.0000000000000000e+00  7.8138046899545777e-01 3.2960111580269270e-02 0.0000000000000000e+00  9.7033214505659127e-01 2.7655842245332828e-03 0.0000000000000000e+00  1.3332366284587687e+00 -1.3749873678766320e-02 0.0000000000000000e+00  1.0275567224549611e+00 1.2027967962342734e-02 0.0000000000000000e+00  9.5024947733511478e-01 8.6568494675861776e-03 0.0000000000000000e+00  6.5624906976177588e-01 9.0419896061988549e-08 0.0000000000000000e+00  1.0995292969797767e+00 5.1531285487357754e-02 0.0000000000000000e+00  1.5702118404134595e+00 3.8086490216367321e-02 0.0000000000000000e+00  1.4851017474714003e+00 8.1747775487585640e-03 0.0000000000000000e+00  9.4943768952740781e-01 1.0772655822701434e-01 0.0000000000000000e+00  1.0675870974949184e+00 6.5799458731555224e-02 0.0000000000000000e+00  7.2909779629296101e-01 -9.9938432807437222e-03 0.0000000000000000e+00  8.3014398318502802e-01 9.7791317649864692e-02 0.0000000000000000e+00  1.4759502495578225e+00 2.0761653100329569e-02 0.0000000000000000e+00  1.6243197007498464e+00 1.6974120188035183e-01 0.0000000000000000e+00  1.2195259763406128e+00 4.3095468049368660e-02 0.0000000000000000e+00  1.4287318231229207e+00 5.7734810205115276e-02 0.0000000000000000e+00  1.6094291941976158e+00 -1.7905986214001551e-02 0.0000000000000000e+00  1.4874827993085644e+00 -1.3279983841897189e-01 0.0000000000000000e+00  1.1044483656574784e+00 3.0483958225304933e-02 0.0000000000000000e+00  1.2444273484535513e+00 -9.7862568105203905e-03 0.0000000000000000e+00  1.2405639943330211e+00 -3.6608667131771090e-04 0.0000000000000000e+00  8.5954729000708430e-01 2.6864059989256325e-03 0.0000000000000000e+00  1.6502206042721685e+00 1.0482546341116407e-01 0.0000000000000000e+00  9.4151983566947794e-01 9.3664386877990072e-02 0.0000000000000000e+00  1.2890916972895559e+00 -8.5006683788262666e-03 0.0000000000000000e+00  1.2233899550450513e+00 1.6077010808449166e-01 0.0000000000000000e+00  9.5239691241659308e-01 -2.4657162884700823e-02 0.0000000000000000e+00  1.2121782308035014e+00 -1.3719773441408026e-02 0.0000000000000000e+00  1.3607022255212990e+00 9.6341791208363781e-02 0.0000000000000000e+00  1.4381751317129092e+00 -2.2725367401292926e-02 0.0000000000000000e+00  1.2287830486437539e+00 2.8109591253225211e-03 0.0000000000000000e+00  1.4126408103018033e+00 -1.0209486930653395e-02 0.0000000000000000e+00  1.2875249699754936e+00 -3.9461918125626362e-02 0.0000000000000000e+00  1.4733487207447791e+00 2.4358361741586154e-04 0.0000000000000000e+00  7.4047193938619571e-01 -1.5736667685678312e-02 0.0000000000000000e+00  6.5768831785392912e-01 1.0109957199072887e-03 0.0000000000000000e+00  7.1073970982432910e-01 2.1609979464373687e-02 0.0000000000000000e+00  7.9177713804188310e-01 1.5419325441141767e-03 0.0000000000000000e+00  1.2223046038152994e+00 4.6704449967409113e-03 0.0000000000000000e+00  8.3703523508575683e-01 2.6680111549612254e-03 0.0000000000000000e+00  1.2826440539895474e+00 3.5518463426253810e-02 0.0000000000000000e+00  1.3437009722356996e+00 -1.7268878569111204e-02 0.0000000000000000e+00  8.1363431373412720e-01 1.2045869770724259e-01 0.0000000000000000e+00  8.3167139740755258e-01 3.5566495650672388e-02 0.0000000000000000e+00  1.3012278639263193e+00 -2.7699958581964543e-02 0.0000000000000000e+00  1.3939518223792975e+00 5.1501359426532452e-02 0.0000000000000000e+00  5.7266408826197723e-01 -2.1969597482076812e-03 0.0000000000000000e+00  1.4046214265105625e+00 -2.7973252825503427e-02 0.0000000000000000e+00  7.7809775571054118e-01 5.7973302075480428e-03 0.0000000000000000e+00  8.7745473648778172e-01 4.3902706855199012e-03 0.0000000000000000e+00  7.3878565547758557e-01 -7.9141463601287917e-02 0.0000000000000000e+00  1.1694165560481444e+00 -4.4962918889454695e-02 0.0000000000000000e+00  7.4991243398822904e-01 6.2456193964030189e-03 0.0000000000000000e+00  1.5090169369943394e+00 3.4398963200304451e-02 0.0000000000000000e+00  1.5285643254891272e+00 4.7604328147538844e-01 0.0000000000000000e+00  1.0046849831485474e+00 1.8214011402549263e-01 0.0000000000000000e+00  8.4853990280639580e-01 -6.1695352499505746e-04 0.0000000000000000e+00  1.3192082472259963e+00 -1.2601911261678669e-01 0.0000000000000000e+00  1.4487301532100758e+00 -5.4612884832058461e-01 0.0000000000000000e+00  7.7616816120865462e-01 2.5010971002867792e-03 0.0000000000000000e+00  8.8639266823752805e-01 1.3933610634522889e-03 0.0000000000000000e+00  1.5517069637495284e+00 -5.8635510365145582e-02 0.0000000000000000e+00  3.4844945142824796e-01 1.1061904554126829e-01 0.0000000000000000e+00  1.4062540444637139e+00 1.7795762086531513e-07 0.0000000000000000e+00  1.2596901547703108e+00 -1.2172286579017142e-02 0.0000000000000000e+00  8.4725291238405875e-01 -4.3679133630691039e-04 0.0000000000000000e+00  1.4062506236346748e+00 9.2223697982703622e-08 0.0000000000000000e+00  8.3608890314240836e-01 5.1092010565491819e-03 0.0000000000000000e+00  1.8370645362824123e+00 -3.3042703659983885e-01 0.0000000000000000e+00  1.4796121262069664e+00 -3.0781599381263406e-02 0.0000000000000000e+00  7.1447094371392028e-01 9.8585818694481797e-02 0.0000000000000000e+00  1.2537910273913599e+00 -1.3671351893974863e-02 0.0000000000000000e+00  7.1032976986999452e-01 -1.4051233471873926e-03 0.0000000000000000e+00  5.5252329326411009e-01 -1.3764883780786726e-02 0.0000000000000000e+00  1.4292112682215965e+00 -8.7344703222848579e-04 0.0000000000000000e+00  4.8902718136299356e-01 -1.5920539002865150e-02 0.0000000000000000e+00  7.3193988345908279e-01 6.0562630436328630e-03 0.0000000000000000e+00  1.3090079398091883e+00 -4.28