<?xml version="1.0"?>
<VTKFile type="UnstructuredGrid"  version="0.1"  >
<UnstructuredGrid>
<Piece  NumberOfPoints="2426" NumberOfCells="4534">
<Points>
<DataArray  type="Float64"  NumberOfComponents="3"  format="ascii">0 0.41 0  0 0 0  2.2 0 0  2.2 0.41 0  0.2404508497187474 0.2293892626146237 0  0.25 0.2 0  0.2404508497187474 0.1706107373853764 0  0.2154508497187474 0.1524471741852423 0  0.1845491502812526 0.1524471741852423 0  0.1595491502812526 0.1706107373853764 0  0.15 0.2 0  0.1595491502812526 0.2293892626146237 0  0.1845491502812527 0.2475528258147577 0  0.2154508497187474 0.2475528258147577 0  0.5404508497187474 0.2293892626146237 0  0.55 0.2 0  0.5404508497187474 0.1706107373853764 0  0.5154508497187473 0.1524471741852423 0  0.4845491502812526 0.1524471741852423 0  0.4595491502812526 0.1706107373853764 0  0.45 0.2 0  0.4595491502812526 0.2293892626146237 0  0.4845491502812526 0.2475528258147577 0  0.5154508497187473 0.2475528258147577 0  1.1 0 0  0 0.205 0  1.1 0.41 0  0.55 0 0  0.55 0.41 0  0.275 0 0  0.275 0.41 0  1.65 0.41 0  1.65 0 0  1.375 0 0  1.375 0.41 0  1.925 0 0  1.925 0.41 0  0.8250000000000001 0.41 0  0.8250000000000001 0 0  1.5125 0.205 0  1.7875 0.205 0  0.9625000000000001 0.205 0  1.2375 0.205 0  2.2 0.205 0  0.7560964076246335 0.2151713709677419 0  1.99375 0.2152743902439024 0  2.0625 0 0  0.6875 0 0  2.0625 0.41 0  2.2 0.3075 0  0.6875 0.41 0  1.7875 0.41 0  1.375 0.1486128048780488 0  1.5125 0 0  1.7875 0 0  1.5125 0.41 0  0.9625000000000001 0 0  0.9625000000000001 0.41 0  0.4125 0 0  0.1375 0 0  0.1375 0.41 0  0.4125 0.41 0  1.2375 0 0  1.1 0.1486128048780487 0  1.2375 0.41 0  1.65 0.1486128048780487 0  1.126715909090909 0.2793064024390244 0  1.676715909090909 0.2793064024390244 0  1.348284090909091 0.2793064024390244 0  0.34375 0.3032389320646208 0  1.894702181800738 0.1282910975492754 0  2.092797818199262 0.1282910975492754 0  1.85625 0.3075 0  0.8630851210521902 0.286932093388664 0  0.89375 0.1025 0  0.35 0.1090282786671641 0  0 0.3075 0  0 0.1025 0  0.6526217841291382 0.288229645480046 0  0.7562500000000001 0.09660248895515888 0  0.6568633732316684 0.1557582854763441 0  2.099172119769978 0.25625 0  1.002356446954348 0.1010393851523063 0  1.99375 0.08395950269330846 0  1.459960956013612 0.3075 0  1.569025960719943 0.2986889805672169 0  1.03125 0.3278689922742084 0  0.75625 0.3247156761655783 0  1.959375 0.3126371951219512 0  1.749222215368287 0.1025 0  1.275777784631713 0.1025 0  2.2 0.1025 0  1.225938124459196 0.3075 0  1.550777784631713 0.1025 0  1.44375 0.07430640243902442 0  1.16875 0.07430640243902437 0  0.3528655045338512 0.2063263890916129 0  0.5890337614812103 0.08775733857679162 0  0.8504912436891263 0.190072835691683 0  1.899250267340833 0.2229966846119207 0  0.1020898364287272 0.3140258291809757 0  1.766482954545455 0.2934032012195123 0  1.051658316544432 0.2265720188842194 0  0.2 0.3400647632937836 0  1.421109702350723 0.2261157654379721 0  0.4812500000000001 0.41 0  0.4324401666997539 0.3216425986889796 0  0.098916018031319 0.09171660955420841 0  0.9508742791313441 0.2921736960864468 0  2.13125 0 0  2.118919042110979 0.3422084711244843 0  1.30625 0.41 0  0.20625 0 0  1.597888256393107 0.2173787389261347 0  0.4812500000000001 0 0  0.4324082967851086 0.08384041677422771 0  1.829299675393195 0.07400700849299596 0  0.568219932524165 0.3212274660843853 0  1.71875 0.41 0  0.268005226542646 0.08512186835670006 0  1.16875 0.41 0  2.038220665644273 0.332420740103091 0  0.6678017527842831 0.07701763866051195 0  0.89375 0.41 0  0.5111435174287687 0.07335351331957608 0  0.176193934632343 0.0734896648625108 0  0.07390688010811153 0.1697064032433452 0  0.05452951551825875 0.25625 0  0.61875 0.41 0  1.452769549894695 0.1548122580621249 0  1.369219062229598 0.07430640243902442 0  1.30625 0 0  1.720943423819132 0.1714577452753128 0  1.157188124459196 0.205 0  1.094219062229598 0.07430640243902437 0  1.304056576180868 0.1714577452753128 0  1.67579304192913 0.07430640243902437 0  0.2672907219039591 0.3037570723459566 0  1.209670467133757 0.1362100266964769 0  1.58125 0 0  1.03125 0 0  0.06875000000000001 0.41 0  0 0.35875 0  1.58125 0.41 0  1.631724228912893 0.3381867502687533 0  0.8240147050827157 0.1225233169495944 0  1.825608881788174 0.14499488549201 0  1.85625 0 0  1.44375 0 0  1.44375 0.41 0  1.85625 0.41 0  2.13125 0.41 0  0.7562500000000001 0.41 0  0.7562500000000001 0 0  0.89375 0 0  0.34375 0 0  0.34375 0.41 0  0.20625 0.41 0  0.06875000000000001 0 0  1.16875 0 0  1.03125 0.41 0  0.61875 0 0  1.71875 0 0  1.99375 0 0  1.99375 0.41 0  0.3972301426712326 0.2593842555611471 0  1.340625 0.3489494290853124 0  1.134375 0.3489494290853123 0  1.700180620188976 0.3438659752031281 0  0.5003922072260507 0.341765274319271 0  0.6212513815748759 0.2209216137134851 0  0.6885607720119526 0.215393731583638 0  1.033412357328477 0.1612902025713047 0  2.135782184673599 0.07126652247502523 0  1.668441847249787 0.2129203728327609 0  1.295782514339747 0.2378437748815763 0  1.409375 0.3520314716057996 0  2.129248544730567 0.1906135162504124 0  2.060771381434487 0.1989445750470348 0  2.013252586573865 0.1496169464686054 0  1.942766402200229 0.1734448904596831 0  1.895522487186454 0.06076163953489683 0  2.069553871656643 0.06605731020975725 0  0.9281250000000001 0.3539050257418612 0  1.274680914880868 0.3520219391081363 0  0.3030138498135347 0.2488370856812789 0  0.8223773249563684 0.341761430177996 0  0.9018164060227267 0.2326477848736739 0  0.8143027982392851 0.2440265179987191 0  0.7225087161029304 0.2699907246386231 0  1.614713220494657 0.09473434380863296 0  0.378125 0.3566194660323104 0  0.309375 0.3566194660323104 0  1.72990325744076 0.2380068107952482 0  0.6915936999299305 0.3429472631234433 0  0.6268087624932918 0.3466455500035671 0  1.356580098625191 0.2120393231351682 0  0.3060160055995138 0.1590148921620778 0  0.3954648733249218 0.156380553890791 0  2.034370752044885 0.2668681600792073 0  1.51768709249349 0.3426260931494756 0  1.561883724969884 0.1650446847858835 0  1.197344062229598 0.2523725417393646 0  0.9281250000000001 0.05124999999999999 0  1.804085235518364 0.3468178408964637 0  1.817887819205233 0.2589243285818559 0  0.9107805776841645 0.1653834539923287 0  1.905897727272727 0.3485060975609756 0  0 0.05125 0  0.844212276491354 0.0614201194265309 0  0.378125 0.05244637078450034 0  1.008571329007178 0.2705955969954818 0  0.7724048032149464 0.1559079561351474 0  0.7203054377831548 0.04941826955193545 0  1.192836486056382 0.3562350748565544 0  0.5967108020713719 0.1479294686523888 0  1.28257088594801 0.2944411014911587 0  0.7041890234548132 0.1222025174424443 0  1.474860187679412 0.2504218616229368 0  1.406767003493824 0.2829282258560709 0  0.3201325899091991 0.05890121548989159 0  0.5979220912872258 0.2727591995766724 0  1.845656689180403 0.1998310418452388 0  2.144958525570388 0.2909790873294231 0  2.2 0.15375 0  1.57794966442982 0.3540357145964566 0  0.9483181579620558 0.1214693369582054 0  0.0496154796471391 0.333125 0  1.508991196088596 0.1421783375065625 0  0.09776612425612034 0.2204896805326566 0  1.50436820029908 0.06143401634903343 0  1.223857000523521 0.0823554862453532 0  0.2531953886959507 0.3582003209055908 0  1.153316824384777 0.1289850171317837 0  2.148922302309752 0.1258841779285271 0  1.621993280276081 0.2841214267927899 0  1.550118654119087 0.2461998729100966 0  1.327182649291491 0.1216967252533594 0  1.753125 0.04556020050186112 0  1.271875 0.04556020050186116 0  0.9824282234771738 0.05051969257615314 0  1.039510847866381 0.05683351822678641 0  1.94956388244759 0.1180512551534177 0  1.949997712993411 0.04965831614304109 0  1.771961817615021 0.1530278789497521 0  1.909246823951428 0.2812757146784527 0  1.101974016627944 0.2038045618205013 0  0.7906250000000001 0.0444674049654372 0  1.948575539857022 0.2445328248721197 0  1.697271520964565 0.1233917627620729 0  1.065625 0.3689344961371042 0  1.085849084308977 0.3170853572226867 0  0.9840604787624379 0.3582077516409966 0  1.577403511714593 0.05463601888079143 0  0.05622663515370135 0.05493816910862376 0  0.8762396958822678 0.3392249777398821 0  1.751571320346033 0.3651102912045228 0  1.055327852410105 0.111864799513911 0  0.1583785085108421 0.2994699345738728 0  0.1455283439499995 0.3542795598723423 0  2.2 0.35875 0  0.225705107073232 0.05084786997482401 0  0.1455852234589313 0.1166494778469164 0  1.466879772203159 0.3611261772912453 0  1.990280163552011 0.3564754268533217 0  1.17471064520912 0.2990917256188288 0  0.7221925551074015 0.1739659241003985 0  0 0.25625 0  2.2 0.25625 0  2.2 0.05125 0  0 0.15375 0  1.853978576207987 0.35875 0  0.21965520498276 0.1015543880164422 0  1.515638456102889 0.2882700110184686 0  0.09048297387599738 0.3637717362208066 0  2.150453692751374 0.2387066338105111 0  1.323782677156475 0.04897634338873398 0  1.409375 0.03715320121951221 0  1.406484531114799 0.1087852750766809 0  1.134375 0.03715320121951218 0  1.627401732573545 0.04552157221025036 0  0.446875 0.3713289093361426 0  2.045405893604797 0.1105340662939892 0  1.255408269734577 0.1577307500159216 0  2.028125 0.03707597992059326 0  0.04420832937638274 0.128125 0  0.5817551710628505 0.3702615006034757 0  0.1197849154434487 0.2663398672460083 0  1.248258025468107 0.2565907092181813 0  0.1300647302703173 0.0508462728378621 0  0.7738123537510222 0.2761231499240648 0  1.203125 0.0366132337404304 0  0.5444207041612499 0.111205399508622 0  0.8016457771828226 0.1964238426015905 0  2.072662025974815 0.2975086504196739 0  0.4019040438866802 0.2103993403217561 0  0.4677372330974851 0.04827477407630658 0  0.8677218578847617 0.1432970430140788 0  1.058011122005847 0.2758866204059919 0  0.4429405887974043 0.2746184809910084 0  0.5843750000000001 0.03726989681835222 0  0.6318596133730142 0.1128692182767254 0  0.4862628454464408 0.2957029785303028 0  0.7805186758662764 0.3673578380827891 0  1.887722846421017 0.1760882698830035 0  0.3498893058880703 0.256189258793856 0  1.472640588990488 0.1118278026240017 0  1.865937103925594 0.2604137786483804 0
[...]
<PointData  Vectors="f_37"> 
<DataArray  type="Float64"  Name="f_37"  NumberOfComponents="3" format="ascii">-6.1302716973329980e-07 2.0236304969808481e-08 0.0000000000000000e+00  3.7441741729215197e-07 -3.0130287343789658e-08 0.0000000000000000e+00  -4.4733561610280308e-07 5.4710590079906611e-09 0.0000000000000000e+00  2.1596058163459862e-06 4.6919140902437720e-08 0.0000000000000000e+00  -9.8418845139298217e-07 8.7552691926249196e-08 0.0000000000000000e+00  -7.7437683719661783e-07 7.8640239400259637e-08 0.0000000000000000e+00  -1.6615819996549529e-06 2.8303026784902758e-07 0.0000000000000000e+00  1.1747479891354934e-06 2.8389965589056310e-07 0.0000000000000000e+00  2.9076577372282123e-06 -4.7301307153035448e-07 0.0000000000000000e+00  -9.5784822394836993e-07 6.5897984370153365e-08 0.0000000000000000e+00  -1.7458112269774279e-06 1.1050493343585660e-06 0.0000000000000000e+00  6.5872789320073707e-07 2.2072589743036525e-06 0.0000000000000000e+00  -3.7753336184618022e-06 -1.2971483757265913e-06 0.0000000000000000e+00  -3.5481062686175567e-06 -8.4436244046645261e-07 0.0000000000000000e+00  -1.9759112010540198e-06 -1.1248362955122384e-08 0.0000000000000000e+00  -1.4090082505961558e-06 2.0515193556019751e-07 0.0000000000000000e+00  -3.7933823367727518e-06 -2.8169786752699423e-07 0.0000000000000000e+00  -2.8055782304350241e-06 -8.8030959768231473e-09 0.0000000000000000e+00  -1.8055999629521495e-06 -1.1648301684580886e-07 0.0000000000000000e+00  -1.7262737918569705e-06 -1.5226033141789334e-07 0.0000000000000000e+00  -1.0380007094517989e-06 -1.5554917657290102e-08 0.0000000000000000e+00  -8.5706552860141723e-07 -1.4377996113147968e-08 0.0000000000000000e+00  -6.7989689634819048e-07 2.1384495400553048e-07 0.0000000000000000e+00  -5.7122752768688204e-07 1.4074911256050959e-07 0.0000000000000000e+00  1.5367917298023528e-07 -2.6712049531764966e-07 0.0000000000000000e+00  1.5000025198424731e+00 1.1013014523140007e-08 0.0000000000000000e+00  -1.7165689305246606e-06 -2.2478456861633622e-07 0.0000000000000000e+00  -2.3788862689253750e-06 -6.9280333071847703e-08 0.0000000000000000e+00  -8.4294916678794886e-07 6.4087541386675372e-08 0.0000000000000000e+00  -2.6454346013089271e-06 9.1101456245816746e-08 0.0000000000000000e+00  -1.0712082138467670e-06 -2.5791295911579935e-08 0.0000000000000000e+00  2.9539945616107591e-07 1.2455073954923019e-07 0.0000000000000000e+00  -3.5073615186745686e-07 9.5435200648569069e-08 0.0000000000000000e+00  5.9451119214115966e-07 7.4162249925068428e-09 0.0000000000000000e+00  2.9636955765587234e-06 3.0075346096240513e-08 0.0000000000000000e+00  7.2870425642508061e-07 -6.0074987170772463e-08 0.0000000000000000e+00  -1.4162923741036844e-06 -3.8414669623057432e-08 0.0000000000000000e+00  -1.0857142926095099e-06 4.5841649828541204e-09 0.0000000000000000e+00  -1.7071659609089736e-06 -9.7264022779243885e-08 0.0000000000000000e+00  1.0329615136539412e+00 -2.0124730273734195e-02 0.0000000000000000e+00  1.1482094120902842e+00 -2.0383865425379129e-02 0.0000000000000000e+00  6.2016445477151305e-01 -1.6566340331066989e-02 0.0000000000000000e+00  9.0086693314064348e-01 2.5487904915274046e-02 0.0000000000000000e+00  1.2375782303739247e+00 -8.2045066465435031e-03 0.0000000000000000e+00  2.1010064230851092e-01 -4.1944468709110325e-02 0.0000000000000000e+00  1.1717038709434917e+00 9.4744234884589947e-03 0.0000000000000000e+00  -1.6410065807024476e-06 3.0359726406409916e-08 0.0000000000000000e+00  -1.5572068656421466e-06 -7.8303923212447612e-08 0.0000000000000000e+00  -1.0332808374326049e-06 1.6732686482426855e-08 0.0000000000000000e+00  1.2625105549718401e+00 -3.7790898640512379e-03 0.0000000000000000e+00  -3.5145746921041201e-07 1.3585724228647443e-08 0.0000000000000000e+00  3.9856861484652108e-07 -5.7740221190331871e-08 0.0000000000000000e+00  1.3119732564257593e+00 4.4361044589613576e-04 0.0000000000000000e+00  2.9072555276358857e-06 -1.2615835121032269e-07 0.0000000000000000e+00  -8.5845343854361070e-07 2.0057282727090246e-08 0.0000000000000000e+00  -1.0720697693062746e-06 -1.7679659946439086e-07 0.0000000000000000e+00  -2.4677228667696377e-06 1.4673368075352040e-07 0.0000000000000000e+00  9.8264962026858877e-07 1.0476056730635783e-07 0.0000000000000000e+00  -7.6511554946694900e-07 -2.5057475922278894e-08 0.0000000000000000e+00  3.0418509634208836e-07 6.4567150933868475e-08 0.0000000000000000e+00  5.9532818459963220e-07 1.3351312663272603e-07 0.0000000000000000e+00  -2.7048643411878324e-06 1.0962479019060074e-07 0.0000000000000000e+00  7.5170213058618728e-07 1.4354522791052816e-07 0.0000000000000000e+00  1.4040669463855799e+00 3.0557035770542154e-02 0.0000000000000000e+00  -7.8733191383671535e-07 1.5747899211514092e-07 0.0000000000000000e+00  1.3270206575896297e+00 2.0346643425836142e-02 0.0000000000000000e+00  1.5646019592587841e+00 -8.7641579351037183e-03 0.0000000000000000e+00  1.4704426539378788e+00 -1.2386855603028574e-02 0.0000000000000000e+00  1.5323556106402563e+00 -1.8394572607813089e-02 0.0000000000000000e+00  1.9609272094132280e+00 2.9871762998113276e-02 0.0000000000000000e+00  1.3760748375369110e+00 7.2417211189232051e-03 0.0000000000000000e+00  1.3149817068822878e+00 9.9555421468868754e-03 0.0000000000000000e+00  1.2855865284696537e+00 8.9889866691924593e-03 0.0000000000000000e+00  1.6716910558692917e+00 -1.0621621844411289e-01 0.0000000000000000e+00  1.5485205493839735e+00 6.9916925944415106e-02 0.0000000000000000e+00  1.8645233927933991e+00 9.8113831306277811e-03 0.0000000000000000e+00  1.1249986006063044e+00 -1.7525859329143616e-07 0.0000000000000000e+00  1.1250027040140256e+00 1.2861502206153228e-08 0.0000000000000000e+00  1.7682559068483812e+00 -1.6607319232618289e-01 0.0000000000000000e+00  1.6467901307138499e+00 1.4286172503530872e-01 0.0000000000000000e+00  7.3901844213193391e-01 9.9979151296552590e-02 0.0000000000000000e+00  1.3614693167055374e+00 1.3444517702117634e-02 0.0000000000000000e+00  1.4848005368324937e+00 3.0722602160976081e-02 0.0000000000000000e+00  1.1044366531438237e+00 -5.3615739394322232e-05 0.0000000000000000e+00  1.3499509965150438e+00 1.1990881923365020e-02 0.0000000000000000e+00  1.4072388765483774e+00 3.0645457837578942e-03 0.0000000000000000e+00  1.2366744466934072e+00 -1.5684867186965438e-02 0.0000000000000000e+00  1.5494297267512416e+00 -1.1836277804445400e-01 0.0000000000000000e+00  1.2533185877186241e+00 1.6782672978270133e-03 0.0000000000000000e+00  1.2852493611441442e+00 -3.5429996544254181e-04 0.0000000000000000e+00  1.3823278382601987e+00 -7.4222587657141849e-03 0.0000000000000000e+00  1.2198369299644285e+00 -1.4122153455795304e-03 0.0000000000000000e+00  1.4259339854901574e+00 -8.2434117020828510e-03 0.0000000000000000e+00  1.3286525356532981e+00 4.0746929899012508e-03 0.0000000000000000e+00  1.0577457368663186e+00 1.5995793479118201e-03 0.0000000000000000e+00  1.0820577122180832e+00 -1.6107394890898226e-03 0.0000000000000000e+00  -3.3029784065786361e-01 -1.4373701492744237e-02 0.0000000000000000e+00  1.7799384775873941e+00 1.2259304333457130e-01 0.0000000000000000e+00  4.2019955188450109e-01 4.4749663381359009e-02 0.0000000000000000e+00  1.1990883935935841e+00 -4.0792746886224057e-02 0.0000000000000000e+00  1.1818633471535911e+00 2.5548056382941309e-01 0.0000000000000000e+00  1.4046774398710307e+00 -7.8152978420105105e-03 0.0000000000000000e+00  1.0036869569750151e+00 -4.4869806309285831e-02 0.0000000000000000e+00  1.3810790351071143e+00 2.1764102537440758e-01 0.0000000000000000e+00  1.1588819128487500e+00 -3.2986935339553929e-02 0.0000000000000000e+00  8.9386534547682534e-07 -8.7456537606748575e-09 0.0000000000000000e+00  1.8393248231428250e+00 -6.1247127943297529e-02 0.0000000000000000e+00  1.1435598713707917e+00 -2.5635823293357501e-01 0.0000000000000000e+00  1.6208611705376719e+00 -6.9841441067501620e-02 0.0000000000000000e+00  -9.3201624970039598e-07 -1.2986751100041279e-08 0.0000000000000000e+00  9.4737223887243938e-01 -1.4437568190405706e-03 0.0000000000000000e+00  -3.2320144622483737e-07 2.6049297133530662e-07 0.0000000000000000e+00  -6.9245135929828230e-06 2.7100844711445053e-07 0.0000000000000000e+00  1.0815373569015680e+00 2.3428139007200262e-02 0.0000000000000000e+00  9.2369960885880543e-07 -2.4063287361554985e-08 0.0000000000000000e+00  1.8257595267720605e+00 7.8155960811294584e-02 0.0000000000000000e+00  1.0281957427405737e+00 1.0891742460055582e-03 0.0000000000000000e+00  1.7920296393325252e+00 -1.1414151532252470e-01 0.0000000000000000e+00  -6.7860283053234416e-07 1.3244879810558790e-07 0.0000000000000000e+00  1.7978440187363025e+00 -1.4128218251457875e-01 0.0000000000000000e+00  -2.4316953290507816e-06 -1.5389503678622195e-07 0.0000000000000000e+00  1.0696302098000687e+00 -1.5492942320450183e-03 0.0000000000000000e+00  1.6038212895848967e+00 1.2969610758262318e-01 0.0000000000000000e+00  -2.1876463707148978e-06 1.8703080088453008e-07 0.0000000000000000e+00  1.7221227976811728e+00 7.4495791020582763e-02 0.0000000000000000e+00  1.3596176347092852e+00 -3.0228170016990935e-01 0.0000000000000000e+00  1.3399791304017090e+00 -1.2280563800840669e-01 0.0000000000000000e+00  1.3729765172040034e+00 1.2468616562492894e-01 0.0000000000000000e+00  7.9527586215475603e-08 1.7107952038947695e-08 0.0000000000000000e+00  1.2894686806094602e+00 -1.3807129869077626e-03 0.0000000000000000e+00  1.0698853278799378e+00 -2.5133796703358507e-03 0.0000000000000000e+00  -6.2841690801418750e-07 1.9953351913888118e-07 0.0000000000000000e+00  1.1520677653474392e+00 2.5487353421935394e-02 0.0000000000000000e+00  8.4112954613140545e-01 2.6277667191485403e-03 0.0000000000000000e+00  1.1098585774374998e+00 9.0870748648932617e-03 0.0000000000000000e+00  1.0928716755968730e+00 2.0572510272682937e-02 0.0000000000000000e+00  1.0374305234521124e+00 -4.3724312481731621e-03 0.0000000000000000e+00  1.9203314702855965e+00 1.8461174791395540e-01 0.0000000000000000e+00  1.4747955755099007e+00 1.9032340296546643e-02 0.0000000000000000e+00  3.2482174580155770e-06 -1.1675527102288476e-08 0.0000000000000000e+00  -1.1515592692780912e-06 -8.5372236911195800e-09 0.0000000000000000e+00  -8.0559668192671555e-07 -5.7190584960843257e-08 0.0000000000000000e+00  6.5625203695990986e-01 1.4478856026871896e-08 0.0000000000000000e+00  -2.1346914419533833e-06 -5.4029722681941162e-08 0.0000000000000000e+00  1.0121370298905219e+00 -1.8470460436962595e-03 0.0000000000000000e+00  1.6233781579870332e+00 1.2878441507877048e-01 0.0000000000000000e+00  1.2896770277334291e+00 -1.2256400792557371e-02 0.0000000000000000e+00  -6.5927110990922708e-07 -3.9286229000118183e-08 0.0000000000000000e+00  -3.1720813051055792e-06 -1.6223462565940415e-07 0.0000000000000000e+00  -1.1862732803368993e-07 -9.8621963423612366e-08 0.0000000000000000e+00  -1.6382290779953655e-06 -1.0632997607505685e-07 0.0000000000000000e+00  -2.8855400992536741e-07 1.6104659391671078e-07 0.0000000000000000e+00  -8.5417646436952403e-07 -8.6537915022379179e-09 0.0000000000000000e+00  -1.8963428261379699e-06 -2.3236836593864825e-07 0.0000000000000000e+00  -7.9434675495319174e-07 7.5647868954077147e-08 0.0000000000000000e+00  1.8498943310746394e-07 -3.1988186112523557e-09 0.0000000000000000e+00  3.7748171479906350e-07 1.7025969880610683e-08 0.0000000000000000e+00  1.1730390527042658e-06 -8.6289535153427069e-08 0.0000000000000000e+00  -8.1998513445482054e-07 1.4358765087495619e-07 0.0000000000000000e+00  2.0893089585407138e-06 -1.2487734009866751e-07 0.0000000000000000e+00  -4.8150547400616356e-07 -6.7048015439803680e-08 0.0000000000000000e+00  -2.9353614423939673e-06 -2.0413999757567786e-07 0.0000000000000000e+00  -3.2278578694152558e-06 2.8935288821896325e-08 0.0000000000000000e+00  -6.5770256428679101e-07 3.4522523160551331e-08 0.0000000000000000e+00  -3.2899126422234688e-06 -2.7113205901343133e-08 0.0000000000000000e+00  7.2479870134722235e-01 -4.3255028836985225e-02 0.0000000000000000e+00  8.5226396168679008e-01 3.8823951446030143e-03 0.0000000000000000e+00  8.7741802841418526e-01 3.9601494788942416e-03 0.0000000000000000e+00  9.2721784441948252e-01 7.4973156437445430e-04 0.0000000000000000e+00  1.6558058787169037e+00 -6.9973619425663630e-02 0.0000000000000000e+00  6.7877733659890017e-03 -1.5057749978044668e-02 0.0000000000000000e+00  3.5444333265310157e-02 -4.2600371367415617e-02 0.0000000000000000e+00  1.1789019662996987e+00 2.3107844307953356e-02 0.0000000000000000e+00  9.7454464952812025e-01 -6.3003480144303771e-04 0.0000000000000000e+00  1.1061355537156967e+00 3.8549978716691753e-02 0.0000000000000000e+00  1.2534983937311635e+00 -1.0782173118552112e-02 0.0000000000000000e+00  8.1026898300345784e-01 8.7332954248848949e-03 0.0000000000000000e+00  1.1962051806390490e+00 4.6752105999198219e-02 0.0000000000000000e+00  1.1987699830236900e+00 4.8976373926888188e-02 0.0000000000000000e+00  1.3580121744861107e+00 2.3897444405264510e-02 0.0000000000000000e+00  1.2560303288938028e+00 -3.6952608286715161e-03 0.0000000000000000e+00  8.6095181678132293e-01 2.4746896192113680e-04 0.0000000000000000e+00  9.1883116007112875e-01 -1.3730204275859718e-03 0.0000000000000000e+00  8.7781564673951074e-01 -2.4991815296448922e-02 0.0000000000000000e+00  8.1114458593148531e-01 4.9651019024912334e-04 0.0000000000000000e+00  2.3177414630035989e-01 5.1527903145573366e-02 0.0000000000000000e+00  1.2324545134946785e+00 -7.0798214248979988e-02 0.0000000000000000e+00  9.6819807029873928e-01 -5.9330714349725006e-02 0.0000000000000000e+00  1.0802336318166277e+00 -9.8191159579043646e-02 0.0000000000000000e+00  1.5462676381300575e+00 -1.6431520837553143e-01 0.0000000000000000e+00  1.2443378384926722e+00 -5.0066601292692156e-03 0.0000000000000000e+00  1.5338459218206473e+00 -2.6305130306962674e-02 0.0000000000000000e+00  1.4843316273624536e+00 3.2124571805602728e-02 0.0000000000000000e+00  1.3153030746285064e+00 -7.6718581555374260e-03 0.0000000000000000e+00  1.4281260789998229e+00 -1.0624997661800131e-01 0.0000000000000000e+00  1.4809612247102251e+00 -1.0205736401056177e-01 0.0000000000000000e+00  1.0246626581643674e+00 -1.3878349052208435e-02 0.0000000000000000e+00  7.9922979611220885e-02 -5.4592803196872618e-02 0.0000000000000000e+00  2.8465357965457666e-01 2.4141404467661387e-02 0.0000000000000000e+00  1.3475898352941387e+00 1.2225179293560765e-02 0.0000000000000000e+00  9.5732817324964625e-01 6.9336021502614245e-03 0.0000000000000000e+00  1.2652447577272590e+00 2.1889822055973673e-02 0.0000000000000000e+00  1.3788221063515793e+00 -7.0207395279530873e-03 0.0000000000000000e+00  7.9139857132579172e-01 1.4186772701436534e-02 0.0000000000000000e+00  8.9083561776789988e-01 6.6399070543038631e-03 0.0000000000000000e+00  1.4167606544071381e+00 -1.9100099709827324e-02 0.0000000000000000e+00  1.0094501651903840e+00 6.4147729064940179e-02 0.0000000000000000e+00  8.8122612348729301e-01 3.2058787171328203e-03 0.0000000000000000e+00  6.5624905344299611e-01 8.4845147114014109e-08 0.0000000000000000e+00  1.0775240237674233e+00 5.1003150182423559e-02 0.0000000000000000e+00  1.5677871444719016e+00 3.7266260709242945e-02 0.0000000000000000e+00  1.5895632948601868e+00 -5.4757281034452342e-02 0.0000000000000000e+00  1.0570889180982397e+00 1.3042170462275160e-01 0.0000000000000000e+00  1.0711181512078678e+00 7.2242496748649063e-02 0.0000000000000000e+00  7.5236701259862826e-01 2.7784077031002764e-03 0.0000000000000000e+00  8.0184834747747757e-01 8.6282743606466136e-02 0.0000000000000000e+00  1.5076827780858304e+00 -1.5741040205119097e-02 0.0000000000000000e+00  1.6587547617609741e+00 1.7068257043096319e-01 0.0000000000000000e+00  1.3461423413242970e+00 -1.3265151000750666e-02 0.0000000000000000e+00  1.4969756094930970e+00 -5.1797350947833283e-03 0.0000000000000000e+00  1.6076896125723934e+00 -1.7181889991081799e-02 0.0000000000000000e+00  1.5011091443773392e+00 -1.3877192734814631e-01 0.0000000000000000e+00  1.1427724313061367e+00 -4.6191727967136165e-02 0.0000000000000000e+00  1.3856747272959544e+00 -1.4872428344759403e-02 0.0000000000000000e+00  1.2361371744792973e+00 -5.5962998887371714e-04 0.0000000000000000e+00  7.9853593734470252e-01 1.7921371300139276e-03 0.0000000000000000e+00  1.5772622767550057e+00 5.1062707837330579e-02 0.0000000000000000e+00  9.4149963941542358e-01 9.3617378209100321e-02 0.0000000000000000e+00  1.4054269240530151e+00 1.5573200350653092e-02 0.0000000000000000e+00  1.2233623637848543e+00 1.6059170374696280e-01 0.0000000000000000e+00  8.7139822051387472e-01 -2.3300609268368071e-03 0.0000000000000000e+00  1.1832282599158370e+00 -7.3463483446339550e-03 0.0000000000000000e+00  1.3610054285303401e+00 9.6660940024190359e-02 0.0000000000000000e+00  1.5247989462638347e+00 2.6100246801185206e-02 0.0000000000000000e+00  1.2864572523377833e+00 6.4174363032637304e-03 0.0000000000000000e+00  1.4567200398062361e+00 -3.4637067125478879e-03 0.0000000000000000e+00  1.2674806954215492e+00 2.8207261265111442e-06 0.0000000000000000e+00  1.4460983980171691e+00 -3.0156548245778643e-03 0.0000000000000000e+00  6.6461298399170721e-01 -1.2569175554129407e-03 0.0000000000000000e+00  6.3328332768628337e-01 -7.6670312644589542e-03 0.0000000000000000e+00  7.4503441850702157e-01 6.6637644928740679e-03 0.0000000000000000e+00  8.3613257975273825e-01 5.9008483957893876e-03 0.0000000000000000e+00  1.3552167597931468e+00 1.4016061832581606e-02 0.0000000000000000e+00  7.1856509408343416e-01 -5.7328241354741912e-04 0.0000000000000000e+00  1.2342382759850692e+00 -2.6345051739158740e-04 0.0000000000000000e+00  1.3759534710735968e+00 2.4750197711925024e-03 0.0000000000000000e+00  7.9110213233168380e-01 -1.9288072114119890e-02 0.0000000000000000e+00  8.1812699564390023e-01 4.2803770193508617e-02 0.0000000000000000e+00  1.2596809133380258e+00 -1.3750150346007120e-02 0.0000000000000000e+00  1.3518271236530801e+00 2.1648747726508992e-03 0.0000000000000000e+00  5.4627934651154408e-01 2.8880631984788021e-03 0.0000000000000000e+00  1.3524673664479048e+00 -6.3647109767673892e-03 0.0000000000000000e+00  7.5498162689052939e-01 -1.0220304698684750e-02 0.0000000000000000e+00  7.7936106595778254e-01 -5.1779062622241837e-03 0.0000000000000000e+00  7.3880937598048046e-01 -7.9174515223864511e-02 0.0000000000000000e+00  1.2007514138459088e+00 -5.6404196769322651e-02 0.0000000000000000e+00  6.4508225081729420e-01 3.0539141951025691e-03 0.0000000000000000e+00  1.5350854144622905e+00 2.9148195220555981e-02 0.0000000000000000e+00  1.5283916194687845e+00 4.7610435697587777e-01 0.0000000000000000e+00  1.0046247068191669e+00 1.8218872489049073e-01 0.0000000000000000e+00  7.4575895467078357e-01 1.5433422529530277e-03 0.0000000000000000e+00  1.3189284070211154e+00 -1.2561789395885495e-01 0.0000000000000000e+00  1.4489037002470047e+00 -5.4607842932203565e-01 0.0000000000000000e+00  6.8727612459231302e-01 7.5228121808090537e-03 0.0000000000000000e+00  7.7847661020880743e-01 6.3626296875257237e-04 0.0000000000000000e+00  1.4978776246104031e+00 -4.3251710691419813e-03 0.0000000000000000e+00  3.9376198186680073e-01 7.0364125908391181e-02 0.0000000000000000e+00  1.4062539892839896e+00 1.1921768114490440e-07 0.0000000000000000e+00  1.4172736465522473e+00 -2.4411420586871273e-02 0.0000000000000000e+00  7.4119755936004483e-01 -1.6454248985589643e-04 0.0000000000000000e+00  1.4062505906223088e+00 3.2680795700410192e-08 0.0000000000000000e+00  7.4347764173808695e-01 4.5786377285725269e-03 0.0000000000000000e+00  1.8372556785756227e+00 -3.2977876197933154e-01 0.0000000000000000e+00  1.4433527059003837e+00 9.1693696021056363e-03 0.0000000000000000e+00  7.1442698084255074e-01 9.8571464160950722e-02 0.0000000000000000e+00  1.3371861854920879e+00 3.8786723598625964e-03 0.0000000000000000e+00  6.9248273838927510e-01 -5.7855090818967241e-03 0.0000000000000000e+00  5.2164774167404215e-01 -1.5732040093191701e-03 0.0000000000000000e+00  1.4076566437523885e+00 4.5567830900481981e-03 0.0000000000000000e+00  4.8437712519003223e-01 -2.2695835308055010e-03 0.0000000000000000e+00  6.5808013627122763e-01 -4.0803095770839569e-03 0.0000000000000000e+00  1.3072447721421281e+0