<?xml version="1.0"?>
<VTKFile type="UnstructuredGrid"  version="0.1"  >
<UnstructuredGrid>
<Piece  NumberOfPoints="2426" NumberOfCells="4534">
<Points>
<DataArray  type="Float64"  NumberOfComponents="3"  format="ascii">0 0.41 0  0 0 0  2.2 0 0  2.2 0.41 0  0.2404508497187474 0.2293892626146237 0  0.25 0.2 0  0.2404508497187474 0.1706107373853764 0  0.2154508497187474 0.1524471741852423 0  0.1845491502812526 0.1524471741852423 0  0.1595491502812526 0.1706107373853764 0  0.15 0.2 0  0.1595491502812526 0.2293892626146237 0  0.1845491502812527 0.2475528258147577 0  0.2154508497187474 0.2475528258147577 0  0.5404508497187474 0.2293892626146237 0  0.55 0.2 0  0.5404508497187474 0.1706107373853764 0  0.5154508497187473 0.1524471741852423 0  0.4845491502812526 0.1524471741852423 0  0.4595491502812526 0.1706107373853764 0  0.45 0.2 0  0.4595491502812526 0.2293892626146237 0  0.4845491502812526 0.2475528258147577 0  0.5154508497187473 0.2475528258147577 0  1.1 0 0  0 0.205 0  1.1 0.41 0  0.55 0 0  0.55 0.41 0  0.275 0 0  0.275 0.41 0  1.65 0.41 0  1.65 0 0  1.375 0 0  1.375 0.41 0  1.925 0 0  1.925 0.41 0  0.8250000000000001 0.41 0  0.8250000000000001 0 0  1.5125 0.205 0  1.7875 0.205 0  0.9625000000000001 0.205 0  1.2375 0.205 0  2.2 0.205 0  0.7560964076246335 0.2151713709677419 0  1.99375 0.2152743902439024 0  2.0625 0 0  0.6875 0 0  2.0625 0.41 0  2.2 0.3075 0  0.6875 0.41 0  1.7875 0.41 0  1.375 0.1486128048780488 0  1.5125 0 0  1.7875 0 0  1.5125 0.41 0  0.9625000000000001 0 0  0.9625000000000001 0.41 0  0.4125 0 0  0.1375 0 0  0.1375 0.41 0  0.4125 0.41 0  1.2375 0 0  1.1 0.1486128048780487 0  1.2375 0.41 0  1.65 0.1486128048780487 0  1.126715909090909 0.2793064024390244 0  1.676715909090909 0.2793064024390244 0  1.348284090909091 0.2793064024390244 0  0.34375 0.3032389320646208 0  1.894702181800738 0.1282910975492754 0  2.092797818199262 0.1282910975492754 0  1.85625 0.3075 0  0.8630851210521902 0.286932093388664 0  0.89375 0.1025 0  0.35 0.1090282786671641 0  0 0.3075 0  0 0.1025 0  0.6526217841291382 0.288229645480046 0  0.7562500000000001 0.09660248895515888 0  0.6568633732316684 0.1557582854763441 0  2.099172119769978 0.25625 0  1.002356446954348 0.1010393851523063 0  1.99375 0.08395950269330846 0  1.459960956013612 0.3075 0  1.569025960719943 0.2986889805672169 0  1.03125 0.3278689922742084 0  0.75625 0.3247156761655783 0  1.959375 0.3126371951219512 0  1.749222215368287 0.1025 0  1.275777784631713 0.1025 0  2.2 0.1025 0  1.225938124459196 0.3075 0  1.550777784631713 0.1025 0  1.44375 0.07430640243902442 0  1.16875 0.07430640243902437 0  0.3528655045338512 0.2063263890916129 0  0.5890337614812103 0.08775733857679162 0  0.8504912436891263 0.190072835691683 0  1.899250267340833 0.2229966846119207 0  0.1020898364287272 0.3140258291809757 0  1.766482954545455 0.2934032012195123 0  1.051658316544432 0.2265720188842194 0  0.2 0.3400647632937836 0  1.421109702350723 0.2261157654379721 0  0.4812500000000001 0.41 0  0.4324401666997539 0.3216425986889796 0  0.098916018031319 0.09171660955420841 0  0.9508742791313441 0.2921736960864468 0  2.13125 0 0  2.118919042110979 0.3422084711244843 0  1.30625 0.41 0  0.20625 0 0  1.597888256393107 0.2173787389261347 0  0.4812500000000001 0 0  0.4324082967851086 0.08384041677422771 0  1.829299675393195 0.07400700849299596 0  0.568219932524165 0.3212274660843853 0  1.71875 0.41 0  0.268005226542646 0.08512186835670006 0  1.16875 0.41 0  2.038220665644273 0.332420740103091 0  0.6678017527842831 0.07701763866051195 0  0.89375 0.41 0  0.5111435174287687 0.07335351331957608 0  0.176193934632343 0.0734896648625108 0  0.07390688010811153 0.1697064032433452 0  0.05452951551825875 0.25625 0  0.61875 0.41 0  1.452769549894695 0.1548122580621249 0  1.369219062229598 0.07430640243902442 0  1.30625 0 0  1.720943423819132 0.1714577452753128 0  1.157188124459196 0.205 0  1.094219062229598 0.07430640243902437 0  1.304056576180868 0.1714577452753128 0  1.67579304192913 0.07430640243902437 0  0.2672907219039591 0.3037570723459566 0  1.209670467133757 0.1362100266964769 0  1.58125 0 0  1.03125 0 0  0.06875000000000001 0.41 0  0 0.35875 0  1.58125 0.41 0  1.631724228912893 0.3381867502687533 0  0.8240147050827157 0.1225233169495944 0  1.825608881788174 0.14499488549201 0  1.85625 0 0  1.44375 0 0  1.44375 0.41 0  1.85625 0.41 0  2.13125 0.41 0  0.7562500000000001 0.41 0  0.7562500000000001 0 0  0.89375 0 0  0.34375 0 0  0.34375 0.41 0  0.20625 0.41 0  0.06875000000000001 0 0  1.16875 0 0  1.03125 0.41 0  0.61875 0 0  1.71875 0 0  1.99375 0 0  1.99375 0.41 0  0.3972301426712326 0.2593842555611471 0  1.340625 0.3489494290853124 0  1.134375 0.3489494290853123 0  1.700180620188976 0.3438659752031281 0  0.5003922072260507 0.341765274319271 0  0.6212513815748759 0.2209216137134851 0  0.6885607720119526 0.215393731583638 0  1.033412357328477 0.1612902025713047 0  2.135782184673599 0.07126652247502523 0  1.668441847249787 0.2129203728327609 0  1.295782514339747 0.2378437748815763 0  1.409375 0.3520314716057996 0  2.129248544730567 0.1906135162504124 0  2.060771381434487 0.1989445750470348 0  2.013252586573865 0.1496169464686054 0  1.942766402200229 0.1734448904596831 0  1.895522487186454 0.06076163953489683 0  2.069553871656643 0.06605731020975725 0  0.9281250000000001 0.3539050257418612 0  1.274680914880868 0.3520219391081363 0  0.3030138498135347 0.2488370856812789 0  0.8223773249563684 0.341761430177996 0  0.9018164060227267 0.2326477848736739 0  0.8143027982392851 0.2440265179987191 0  0.7225087161029304 0.2699907246386231 0  1.614713220494657 0.09473434380863296 0  0.378125 0.3566194660323104 0  0.309375 0.3566194660323104 0  1.72990325744076 0.2380068107952482 0  0.6915936999299305 0.3429472631234433 0  0.6268087624932918 0.3466455500035671 0  1.356580098625191 0.2120393231351682 0  0.3060160055995138 0.1590148921620778 0  0.3954648733249218 0.156380553890791 0  2.034370752044885 0.2668681600792073 0  1.51768709249349 0.3426260931494756 0  1.561883724969884 0.1650446847858835 0  1.197344062229598 0.2523725417393646 0  0.9281250000000001 0.05124999999999999 0  1.804085235518364 0.3468178408964637 0  1.817887819205233 0.2589243285818559 0  0.9107805776841645 0.1653834539923287 0  1.905897727272727 0.3485060975609756 0  0 0.05125 0  0.844212276491354 0.0614201194265309 0  0.378125 0.05244637078450034 0  1.008571329007178 0.2705955969954818 0  0.7724048032149464 0.1559079561351474 0  0.7203054377831548 0.04941826955193545 0  1.192836486056382 0.3562350748565544 0  0.5967108020713719 0.1479294686523888 0  1.28257088594801 0.2944411014911587 0  0.7041890234548132 0.1222025174424443 0  1.474860187679412 0.2504218616229368 0  1.406767003493824 0.2829282258560709 0  0.3201325899091991 0.05890121548989159 0  0.5979220912872258 0.2727591995766724 0  1.845656689180403 0.1998310418452388 0  2.144958525570388 0.2909790873294231 0  2.2 0.15375 0  1.57794966442982 0.3540357145964566 0  0.9483181579620558 0.1214693369582054 0  0.0496154796471391 0.333125 0  1.508991196088596 0.1421783375065625 0  0.09776612425612034 0.2204896805326566 0  1.50436820029908 0.06143401634903343 0  1.223857000523521 0.0823554862453532 0  0.2531953886959507 0.3582003209055908 0  1.153316824384777 0.1289850171317837 0  2.148922302309752 0.1258841779285271 0  1.621993280276081 0.2841214267927899 0  1.550118654119087 0.2461998729100966 0  1.327182649291491 0.1216967252533594 0  1.753125 0.04556020050186112 0  1.271875 0.04556020050186116 0  0.9824282234771738 0.05051969257615314 0  1.039510847866381 0.05683351822678641 0  1.94956388244759 0.1180512551534177 0  1.949997712993411 0.04965831614304109 0  1.771961817615021 0.1530278789497521 0  1.909246823951428 0.2812757146784527 0  1.101974016627944 0.2038045618205013 0  0.7906250000000001 0.0444674049654372 0  1.948575539857022 0.2445328248721197 0  1.697271520964565 0.1233917627620729 0  1.065625 0.3689344961371042 0  1.085849084308977 0.3170853572226867 0  0.9840604787624379 0.3582077516409966 0  1.577403511714593 0.05463601888079143 0  0.05622663515370135 0.05493816910862376 0  0.8762396958822678 0.3392249777398821 0  1.751571320346033 0.3651102912045228 0  1.055327852410105 0.111864799513911 0  0.1583785085108421 0.2994699345738728 0  0.1455283439499995 0.3542795598723423 0  2.2 0.35875 0  0.225705107073232 0.05084786997482401 0  0.1455852234589313 0.1166494778469164 0  1.466879772203159 0.3611261772912453 0  1.990280163552011 0.3564754268533217 0  1.17471064520912 0.2990917256188288 0  0.7221925551074015 0.1739659241003985 0  0 0.25625 0  2.2 0.25625 0  2.2 0.05125 0  0 0.15375 0  1.853978576207987 0.35875 0  0.21965520498276 0.1015543880164422 0  1.515638456102889 0.2882700110184686 0  0.09048297387599738 0.3637717362208066 0  2.150453692751374 0.2387066338105111 0  1.323782677156475 0.04897634338873398 0  1.409375 0.03715320121951221 0  1.406484531114799 0.1087852750766809 0  1.134375 0.03715320121951218 0  1.627401732573545 0.04552157221025036 0  0.446875 0.3713289093361426 0  2.045405893604797 0.1105340662939892 0  1.255408269734577 0.1577307500159216 0  2.028125 0.03707597992059326 0  0.04420832937638274 0.128125 0  0.5817551710628505 0.3702615006034757 0  0.1197849154434487 0.2663398672460083 0  1.248258025468107 0.2565907092181813 0  0.1300647302703173 0.0508462728378621 0  0.7738123537510222 0.2761231499240648 0  1.203125 0.0366132337404304 0  0.5444207041612499 0.111205399508622 0  0.8016457771828226 0.1964238426015905 0  2.072662025974815 0.2975086504196739 0  0.4019040438866802 0.2103993403217561 0  0.4677372330974851 0.04827477407630658 0  0.8677218578847617 0.1432970430140788 0  1.058011122005847 0.2758866204059919 0  0.4429405887974043 0.2746184809910084 0  0.5843750000000001 0.03726989681835222 0  0.6318596133730142 0.1128692182767254 0  0.4862628454464408 0.2957029785303028 0  0.7805186758662764 0.3673578380827891 0  1.887722846421017 0.1760882698830035 0  0.3498893058880703 0.256189258793856 0  1.472640588990488 0.1118278026240017 0  1.865937103925594 0.2604137786483804 0
[...]
<PointData  Vectors="f_37"> 
<DataArray  type="Float64"  Name="f_37"  NumberOfComponents="3" format="ascii">-5.5551898718095500e-07 2.5560593254702760e-08 0.0000000000000000e+00  3.0990218787592501e-07 -1.1854621855218909e-08 0.0000000000000000e+00  -1.4089957556552286e-07 -2.9544280326752252e-09 0.0000000000000000e+00  1.5477023529034425e-06 -1.1432724984060735e-08 0.0000000000000000e+00  -5.3299494561972717e-06 1.5210874210503232e-06 0.0000000000000000e+00  -7.7363626760250610e-06 5.5549970910803266e-06 0.0000000000000000e+00  -6.1588515539185822e-06 3.9376324796655138e-06 0.0000000000000000e+00  2.5328311653644961e-06 -4.7658198414545530e-07 0.0000000000000000e+00  9.1234753727734537e-07 -2.9455272543950528e-06 0.0000000000000000e+00  -2.8265694463000501e-06 1.1477599906012631e-06 0.0000000000000000e+00  -1.7438070787430891e-06 2.7824136613013829e-06 0.0000000000000000e+00  3.0034181792338606e-06 2.7450556434902444e-06 0.0000000000000000e+00  -1.9156834964879075e-06 -1.8707211605119419e-06 0.0000000000000000e+00  -2.3848244771136356e-06 -2.1610897272205344e-06 0.0000000000000000e+00  5.8461611306591029e-06 1.0781644440363617e-05 0.0000000000000000e+00  -1.0866682542808277e-05 8.9382884467266046e-07 0.0000000000000000e+00  -3.2764935186763180e-06 -7.8942343051675389e-06 0.0000000000000000e+00  7.8077154275700489e-07 -9.5590658461053994e-06 0.0000000000000000e+00  -3.6133844268738390e-05 -3.0243134264078449e-06 0.0000000000000000e+00  -1.5698506011122805e-05 9.9018363545193135e-06 0.0000000000000000e+00  1.5291501449583212e-05 -1.1778855037145119e-07 0.0000000000000000e+00  -1.0391182727172827e-05 -5.1032951350710709e-06 0.0000000000000000e+00  -6.1666295392233029e-05 -4.0516238604723446e-06 0.0000000000000000e+00  -2.0207969302479693e-05 9.3196752014118308e-06 0.0000000000000000e+00  -1.1116250573820714e-06 2.3338368774831569e-08 0.0000000000000000e+00  1.5000026872437502e+00 5.8638409115315563e-07 0.0000000000000000e+00  -2.2452621175779882e-06 -1.5694579732799825e-08 0.0000000000000000e+00  -3.0000355662466760e-07 -1.7389300544333373e-06 0.0000000000000000e+00  1.6800403959378130e-06 1.6504330508991635e-06 0.0000000000000000e+00  -3.6121489271636271e-06 4.3900875268409444e-07 0.0000000000000000e+00  -2.6260241345774355e-06 -3.4529924739373778e-07 0.0000000000000000e+00  5.3754990033949726e-07 -1.2852402623840701e-09 0.0000000000000000e+00  2.4939029653972749e-07 -2.8641840522193665e-09 0.0000000000000000e+00  3.3731409802195738e-06 -1.7178144880619537e-08 0.0000000000000000e+00  2.1472886959644071e-06 8.1301537695151966e-09 0.0000000000000000e+00  8.0733959297884348e-07 7.9376263347891152e-09 0.0000000000000000e+00  -8.5537962000246876e-07 7.9009050087065741e-09 0.0000000000000000e+00  3.6800414873502953e-06 3.5216065690996405e-07 0.0000000000000000e+00  2.2028899296737037e-06 -3.5762614128681768e-07 0.0000000000000000e+00  1.1287661802728468e+00 1.5266507369015215e-05 0.0000000000000000e+00  1.1286678931423320e+00 -2.8983770051436330e-05 0.0000000000000000e+00  1.0949548447115294e+00 -1.4828727052091673e-02 0.0000000000000000e+00  1.1289120378367741e+00 -6.7629100365054914e-04 0.0000000000000000e+00  1.1285236377000312e+00 9.7407672235942497e-06 0.0000000000000000e+00  3.9604257404994536e-01 -1.7127605527862375e-01 0.0000000000000000e+00  1.1286879819522142e+00 -3.5623170370518624e-05 0.0000000000000000e+00  -3.1778331177950057e-06 8.5877922437888311e-09 0.0000000000000000e+00  -1.2150840772478727e-05 5.6214050904322247e-07 0.0000000000000000e+00  -1.4297195714614009e-06 -2.7656179848272250e-09 0.0000000000000000e+00  1.1277993635453067e+00 6.0762683343321570e-05 0.0000000000000000e+00  -8.6884491321385378e-06 -6.4477920798356832e-07 0.0000000000000000e+00  -6.3192980048484710e-07 3.1948679469204350e-09 0.0000000000000000e+00  1.1286239863082297e+00 -1.3021192468893570e-04 0.0000000000000000e+00  3.8457921407126261e-06 -1.5601856206909744e-08 0.0000000000000000e+00  -2.9674696341632120e-07 -7.1211589640237710e-09 0.0000000000000000e+00  8.8314207580499673e-07 5.2607072822223915e-09 0.0000000000000000e+00  -7.9959590140833802e-06 4.2904007307545775e-07 0.0000000000000000e+00  -4.9832040971800215e-06 -3.1352448068784122e-07 0.0000000000000000e+00  -1.5112881838565318e-06 5.0170749930610372e-07 0.0000000000000000e+00  -4.0622507634476479e-08 1.1063597254042173e-07 0.0000000000000000e+00  6.5444599865728764e-07 7.7667426809530259e-08 0.0000000000000000e+00  -4.4216916649393805e-06 5.5581615758447020e-07 0.0000000000000000e+00  1.1785210000230662e-06 -6.0658925581394432e-09 0.0000000000000000e+00  1.1287362296213597e+00 -3.6017321746521333e-03 0.0000000000000000e+00  -5.2711498437018700e-07 -1.5063769398981484e-08 0.0000000000000000e+00  1.1287011220504919e+00 -9.8651668490059855e-06 0.0000000000000000e+00  1.1315825128429537e+00 -2.3133224301373926e-04 0.0000000000000000e+00  1.1285687099464279e+00 8.3360488672485237e-05 0.0000000000000000e+00  1.1287873691679051e+00 -1.5743566919149089e-04 0.0000000000000000e+00  2.0382148305760208e+00 3.9630368211935219e-02 0.0000000000000000e+00  1.1285438906097542e+00 -6.8464339776285924e-05 0.0000000000000000e+00  1.1285641173387879e+00 -1.0920624347240436e-04 0.0000000000000000e+00  1.1276840617954202e+00 4.7052086866650952e-06 0.0000000000000000e+00  1.2570119278941780e+00 -7.7942138139120556e-02 0.0000000000000000e+00  1.2264575428992148e+00 1.9021158159531735e-02 0.0000000000000000e+00  1.9451992163700489e+00 2.2695366943246038e-02 0.0000000000000000e+00  1.1249986542623220e+00 1.4695922302928280e-08 0.0000000000000000e+00  1.1250030895354008e+00 3.1668743362318069e-07 0.0000000000000000e+00  1.7565166519918083e+00 -8.6224199083118777e-02 0.0000000000000000e+00  1.4397708018915030e+00 1.9290840973473999e-01 0.0000000000000000e+00  6.8512203267274874e-01 6.1474308052876556e-02 0.0000000000000000e+00  1.1286620882245395e+00 -1.8619840765818741e-05 0.0000000000000000e+00  1.1375588230738991e+00 -1.1972654702094986e-02 0.0000000000000000e+00  1.1233394542124830e+00 2.9926210816090663e-05 0.0000000000000000e+00  1.1281511211301698e+00 -1.1407082296047499e-05 0.0000000000000000e+00  1.1282964815918044e+00 2.2771756519509965e-04 0.0000000000000000e+00  1.1304699177454738e+00 8.9786401815105214e-03 0.0000000000000000e+00  1.4312224639974211e+00 -1.5274174314642333e-01 0.0000000000000000e+00  1.1275108178138216e+00 6.1226972719752617e-06 0.0000000000000000e+00  1.1271968664383361e+00 -2.1500852546315263e-04 0.0000000000000000e+00  1.1274391701934687e+00 -4.1164571257974622e-04 0.0000000000000000e+00  1.1274570889749249e+00 -1.1979184600214213e-04 0.0000000000000000e+00  1.1284629765762870e+00 1.6451187314666372e-04 0.0000000000000000e+00  1.1278947606086389e+00 1.1912287622808030e-04 0.0000000000000000e+00  1.1146146900954634e+00 -3.8918023968694911e-05 0.0000000000000000e+00  1.1121950074971170e+00 -1.1788415846374896e-03 0.0000000000000000e+00  -7.7331532223265542e-01 2.5184556107554850e-03 0.0000000000000000e+00  1.6714365790878525e+00 1.4954567536856648e-02 0.0000000000000000e+00  8.5289187376517173e-01 3.8852826062068198e-02 0.0000000000000000e+00  1.1286962349880836e+00 -1.9229944600531998e-05 0.0000000000000000e+00  1.1811907941566362e+00 2.5742688221130172e-01 0.0000000000000000e+00  1.1284598216151407e+00 -1.1855201306756869e-05 0.0000000000000000e+00  1.1318920089760738e+00 -6.5364401465349648e-03 0.0000000000000000e+00  1.3865510497805686e+00 2.2892032302599280e-01 0.0000000000000000e+00  1.1287451815937626e+00 -8.5100112312257891e-05 0.0000000000000000e+00  3.2764324888056577e-06 1.0412224593728022e-06 0.0000000000000000e+00  1.8478836269755283e+00 -1.4056897767110918e-01 0.0000000000000000e+00  1.1441208725455478e+00 -2.5962557565926642e-01 0.0000000000000000e+00  1.1839864054586287e+00 -9.4881014842284755e-03 0.0000000000000000e+00  -1.3413918826751593e-06 1.0372164507183868e-08 0.0000000000000000e+00  1.1031753650233176e+00 9.2120491439991571e-05 0.0000000000000000e+00  -2.6056167619292377e-06 5.1939214567949999e-09 0.0000000000000000e+00  -7.2093287333674976e-06 5.2611900720974436e-07 0.0000000000000000e+00  1.1287287937402104e+00 6.3837284591086908e-05 0.0000000000000000e+00  3.7837190898361663e-06 -1.2722965007913322e-06 0.0000000000000000e+00  1.7957404522018785e+00 1.7386253508571411e-01 0.0000000000000000e+00  1.1141513952689663e+00 -1.4481783135012274e-04 0.0000000000000000e+00  1.6884580955430035e+00 -4.7165790581820105e-02 0.0000000000000000e+00  -3.9905239693898268e-06 -2.2928621182794009e-09 0.0000000000000000e+00  1.8233517797051642e+00 -1.7154690715913504e-01 0.0000000000000000e+00  -1.4668123309554719e-06 -5.6044781144751448e-09 0.0000000000000000e+00  1.1184193052557956e+00 1.6959078805647387e-04 0.0000000000000000e+00  1.5050232412876405e+00 3.5673944587784404e-02 0.0000000000000000e+00  -6.7174999514222908e-06 -4.4605303700028307e-07 0.0000000000000000e+00  1.6190180334487436e+00 4.7081493679070982e-02 0.0000000000000000e+00  1.3642537628724953e+00 -3.1154762813315695e-01 0.0000000000000000e+00  1.3396063610745179e+00 -1.2477044244130787e-01 0.0000000000000000e+00  1.3724788898120210e+00 1.2461919807491195e-01 0.0000000000000000e+00  -4.2167377763722520e-07 -6.0547459769598297e-07 0.0000000000000000e+00  1.1287073341715834e+00 -2.2616605874471781e-06 0.0000000000000000e+00  1.1135517020008272e+00 -2.2060140960459228e-04 0.0000000000000000e+00  1.6261668485048602e-06 1.2988612910427239e-08 0.0000000000000000e+00  1.1286327113675572e+00 -1.1234758570506598e-05 0.0000000000000000e+00  1.1296246158098131e+00 -1.7065098802403836e-03 0.0000000000000000e+00  1.1101307983517974e+00 -4.4256985837860217e-03 0.0000000000000000e+00  1.1286359499890579e+00 -3.5604305425157064e-04 0.0000000000000000e+00  1.1139766444387260e+00 -2.0940796916240939e-04 0.0000000000000000e+00  1.9339086434162764e+00 2.2539052180373301e-01 0.0000000000000000e+00  1.1281834700223434e+00 -1.0752477909717437e-03 0.0000000000000000e+00  4.7729532862232966e-06 -1.1360515973650140e-08 0.0000000000000000e+00  -1.6193660098478376e-06 1.2101812395972518e-07 0.0000000000000000e+00  -6.7153826275762389e-07 -6.0592745565085981e-08 0.0000000000000000e+00  6.5625209793281913e-01 6.9156126616324302e-08 0.0000000000000000e+00  -1.8777650100712549e-06 2.2969904223505319e-09 0.0000000000000000e+00  1.1111054907881914e+00 2.9087263492354171e-04 0.0000000000000000e+00  1.2876875023229633e+00 1.4291628667742526e-01 0.0000000000000000e+00  1.1286478448220798e+00 -7.3906221348321379e-06 0.0000000000000000e+00  -4.9574798387222664e-07 1.4796235196833201e-08 0.0000000000000000e+00  -5.3152824224268086e-06 1.9641614388973333e-08 0.0000000000000000e+00  4.1151137200974465e-07 -5.8628802423729836e-09 0.0000000000000000e+00  -2.1932665103729983e-06 3.9422474508648075e-10 0.0000000000000000e+00  -1.4572774237911766e-06 1.0012421782040027e-08 0.0000000000000000e+00  -4.4379084815716435e-07 6.0760888554572570e-07 0.0000000000000000e+00  -6.6315660485080349e-07 -9.4239399409120098e-07 0.0000000000000000e+00  -3.8628743493047632e-06 4.5429890768052415e-07 0.0000000000000000e+00  -9.9249011108261159e-07 5.0254939119294730e-07 0.0000000000000000e+00  -1.6350781147610183e-06 -3.5107050876303213e-07 0.0000000000000000e+00  1.4489753187747586e-07 -4.2173391373264095e-07 0.0000000000000000e+00  -1.0048393085371794e-06 1.7681537755325588e-07 0.0000000000000000e+00  1.1680479075865126e-06 2.1876273510050691e-08 0.0000000000000000e+00  -2.9447979130583467e-06 -2.6385637525415856e-08 0.0000000000000000e+00  -5.7427225689725715e-06 -6.9598872573058779e-07 0.0000000000000000e+00  -3.1639348826578935e-06 -1.3700718187235377e-08 0.0000000000000000e+00  -1.3739250351093316e-06 -6.6139268876585186e-09 0.0000000000000000e+00  -5.4836750647864005e-06 4.4330638863247751e-09 0.0000000000000000e+00  8.6194371994857344e-01 -9.8848513120706902e-02 0.0000000000000000e+00  1.0831758570424552e+00 -4.3266015020634193e-05 0.0000000000000000e+00  1.0837558563164891e+00 1.5194983508142533e-03 0.0000000000000000e+00  1.0990960082348760e+00 6.0956209732616937e-06 0.0000000000000000e+00  1.5895313155426505e+00 -7.0418095095192063e-02 0.0000000000000000e+00  -9.3046775536435502e-03 6.1119113673468249e-02 0.0000000000000000e+00  -4.2265129501078455e-02 -8.4179269687420566e-02 0.0000000000000000e+00  1.1290127192026542e+00 -3.4994430133438842e-03 0.0000000000000000e+00  1.1095697840157990e+00 -2.2314519025239292e-04 0.0000000000000000e+00  1.1286899571661781e+00 2.1733387459914366e-05 0.0000000000000000e+00  1.1288617584041876e+00 -2.9783495498635857e-04 0.0000000000000000e+00  1.0716825319863374e+00 -1.3831544707657595e-04 0.0000000000000000e+00  1.1285971058271036e+00 -5.8602147610392888e-05 0.0000000000000000e+00  1.1286249075223345e+00 -5.7985305541812460e-05 0.0000000000000000e+00  1.1286652245948774e+00 -5.1406501079137773e-05 0.0000000000000000e+00  1.1286979697945017e+00 -3.5624968670903943e-05 0.0000000000000000e+00  1.0821809362092405e+00 -4.2486608155490352e-06 0.0000000000000000e+00  1.0989177426637962e+00 -3.1253489265429196e-04 0.0000000000000000e+00  1.0541681353824131e+00 3.1756938038850102e-02 0.0000000000000000e+00  1.0723701236383663e+00 1.7698177671658720e-04 0.0000000000000000e+00  3.0851421308332178e-01 1.6464704720241033e-01 0.0000000000000000e+00  1.2574848991746372e+00 -5.7167974909949161e-02 0.0000000000000000e+00  1.1079164029687176e+00 -5.5514219072429628e-02 0.0000000000000000e+00  1.1140415976892244e+00 -1.8281488698262713e-01 0.0000000000000000e+00  1.4528127607713917e+00 -2.9451442990731957e-01 0.0000000000000000e+00  1.1267901393402222e+00 -1.8359080023427980e-04 0.0000000000000000e+00  1.5755503424760022e+00 -5.3728026983694228e-02 0.0000000000000000e+00  1.5253982363344289e+00 3.8332866383608333e-02 0.0000000000000000e+00  1.1286635199432435e+00 -1.0156069080626937e-06 0.0000000000000000e+00  1.4315896621322910e+00 -6.1231449208784788e-02 0.0000000000000000e+00  1.4044885908295128e+00 -6.1512081005955042e-03 0.0000000000000000e+00  1.1287248920336890e+00 -1.9597650193776647e-04 0.0000000000000000e+00  1.9413559944386169e-01 -2.0417388951971618e-01 0.0000000000000000e+00  4.0320901036645007e-01 1.5292335517990585e-01 0.0000000000000000e+00  1.1287163174982904e+00 5.3098492789642041e-07 0.0000000000000000e+00  1.1024731462704103e+00 2.7588265388289512e-04 0.0000000000000000e+00  1.1287367479362760e+00 4.8069659618619779e-05 0.0000000000000000e+00  1.1296346811700468e+00 -5.3732512280425728e-04 0.0000000000000000e+00  9.9459105975131712e-01 -4.0017292915605185e-02 0.0000000000000000e+00  1.0917578796643139e+00 -9.4927753480174271e-05 0.0000000000000000e+00  1.1285962690392373e+00 -3.0783060342295559e-05 0.0000000000000000e+00  1.1074004251613740e+00 4.4964215186550929e-02 0.0000000000000000e+00  1.0856313503409820e+00 8.7461685737350728e-05 0.0000000000000000e+00  6.5624915945761675e-01 1.7621570977723132e-07 0.0000000000000000e+00  1.1567643049989613e+00 1.8767627320804916e-02 0.0000000000000000e+00  1.6001065349402614e+00 8.0179059433842723e-02 0.0000000000000000e+00  1.1475837595161169e+00 -8.6723618636110767e-03 0.0000000000000000e+00  1.0373613670505233e+00 2.4435614523386365e-01 0.0000000000000000e+00  1.2678578105684617e+00 1.0256772010854417e-01 0.0000000000000000e+00  1.0507736511062271e+00 6.1347331560300230e-04 0.0000000000000000e+00  8.0216237495486575e-01 2.9577506984936729e-02 0.0000000000000000e+00  1.1287310437378302e+00 -6.6167131270746719e-05 0.0000000000000000e+00  1.5287129634684262e+00 2.1684544595132357e-01 0.0000000000000000e+00  1.1287808658969511e+00 -6.7609614577854778e-06 0.0000000000000000e+00  1.1287761420719666e+00 -1.0895901998609485e-04 0.0000000000000000e+00  1.6595427703244414e+00 -1.6718209027836568e-02 0.0000000000000000e+00  1.6455368707133637e+00 -5.6658923893400007e-02 0.0000000000000000e+00  1.1286557787043288e+00 -1.5685110656104732e-05 0.0000000000000000e+00  1.1285833813661401e+00 -2.0331358550417085e-05 0.0000000000000000e+00  1.1286613956357132e+00 -5.3320099536548211e-05 0.0000000000000000e+00  1.0630820930234472e+00 3.5931822230722468e-04 0.0000000000000000e+00  1.1676703858458604e+00 5.2958328471686437e-03 0.0000000000000000e+00  9.4154346968571623e-01 9.4416027063379857e-02 0.0000000000000000e+00  1.1286917443257083e+00 6.5552051357254074e-05 0.0000000000000000e+00  1.2219477101365162e+00 1.5858573866440109e-01 0.0000000000000000e+00  1.0860266370613127e+00 1.7361220742128947e-04 0.0000000000000000e+00  1.1206490650035794e+00 -5.0449766498635159e-04 0.0000000000000000e+00  1.3819260645699531e+00 1.0936974593034564e-01 0.0000000000000000e+00  1.1278293120018679e+00 -2.2110386080158011e-03 0.0000000000000000e+00  1.1285139423548234e+00 -1.3004389530494009e-04 0.0000000000000000e+00  1.1286350598059836e+00 1.4028155458186941e-04 0.0000000000000000e+00  1.1287454960614001e+00 7.3273963045036880e-05 0.0000000000000000e+00  1.1283126018460023e+00 -2.4824393669895342e-04 0.0000000000000000e+00  9.9182796647684013e-01 1.9245810865400484e-07 0.0000000000000000e+00  9.9104037780964394e-01 -3.6802985123970830e-04 0.0000000000000000e+00  1.0021485152166318e+00 -2.4743621323811141e-02 0.0000000000000000e+00  1.0551763145824564e+00 -1.0007150306001076e-02 0.0000000000000000e+00  1.1284202099933460e+00 -1.8929982297304642e-05 0.0000000000000000e+00  1.0229386027702065e+00 -2.0145653634404005e-05 0.0000000000000000e+00  1.1286247176415181e+00 -3.7890628915431671e-06 0.0000000000000000e+00  1.1287141045118694e+00 -5.1567153331606836e-06 0.0000000000000000e+00  1.1302790596969197e+00 -3.2697755484669688e-03 0.0000000000000000e+00  1.0098237955338192e+00 5.6362811668120426e-02 0.0000000000000000e+00  1.1286851130164086e+00 -2.7934672748577455e-05 0.0000000000000000e+00  1.1284702619614564e+00 -5.4206699020951876e-05 0.0000000000000000e+00  9.3811192718235403e-01 4.0094729932706723e-03 0.0000000000000000e+00  1.1310156368138711e+00 2.8748550151105534e-03 0.0000000000000000e+00  1.0229062260354489e+00 2.0962274383367906e-02 0.0000000000000000e+00  1.0546315199769247e+00 5.7667798719722403e-05 0.0000000000000000e+00  7.3924590441790583e-01 -8.0242331429399211e-02 0.0000000000000000e+00  1.1954769427238645e+00 -9.2188569291192901e-05 0.0000000000000000e+00  9.8477216478278129e-01 -9.7198049559662824e-05 0.0000000000000000e+00  1.1290509474075798e+00 -6.4898175504665544e-03 0.0000000000000000e+00  1.5241577697909785e+00 4.8158056268768173e-01 0.0000000000000000e+00  1.0069402235584728e+00 1.8619802455677462e-01 0.0000000000000000e+00  1.0351125815425373e+00 5.0014927219138225e-04 0.0000000000000000e+00  1.3350191519984367e+00 -1.3670312860258688e-01 0.0000000000000000e+00  1.4487923466034471e+00 -5.5244645065016074e-01 0.0000000000000000e+00  1.0186613238297948e+00 4.5782051908681539e-05 0.0000000000000000e+00  1.0498083531728486e+00 1.8567049725407342e-04 0.0000000000000000e+00  1.1297456185725363e+00 2.6570679148120267e-04 0.0000000000000000e+00  3.3813040154900303e-01 1.5920116419145022e-01 0.0000000000000000e+00  1.4062543803938976e+00 5.7200895654753213e-07 0.0000000000000000e+00  1.1286603247816305e+00 6.4256756062850825e-06 0.0000000000000000e+00  1.0359627125562321e+00 -7.1270328030824544e-04 0.0000000000000000e+00  1.4062508019057598e+00 5.2815790299013604e-07 0.0000000000000000e+00  1.0355227156108189e+00 9.3622773435718119e-05 0.0000000000000000e+00  1.8390783610059502e+00 -3.5133196885949830e-01 0.0000000000000000e+00  1.1287914724313826e+00 4.3510797184756008e-05 0.0000000000000000e+00  7.1534455965621724e-01 9.9894286445071992e-02 0.0000000000000000e+00  1.1286055659840546e+00 -1.2879157967877004e-05 0.0000000000000000e+00  1.0194131608806101e+00 -3.7492321485568602e-04 0.0000000000000000e+00  8.9646962257265528e-01 3.2931827230949641e-05 0.0000000000000000e+00  1.1281561040816859e+00 -2.5797528316607260e-05 0.0000000000000000e+00  8.9572143071250099e-01 -7.7571375954239234e-04 0.0000000000000000e+00  9.8965352497507564e-01 -3.4482291331527568e-04 0.0000000000000000e+00  1.2783614