<?xml version="1.0"?>
<VTKFile type="UnstructuredGrid"  version="0.1"  >
<UnstructuredGrid>
<Piece  NumberOfPoints="2426" NumberOfCells="4534">
<Points>
<DataArray  type="Float64"  NumberOfComponents="3"  format="ascii">0 0.41 0  0 0 0  2.2 0 0  2.2 0.41 0  0.2404508497187474 0.2293892626146237 0  0.25 0.2 0  0.2404508497187474 0.1706107373853764 0  0.2154508497187474 0.1524471741852423 0  0.1845491502812526 0.1524471741852423 0  0.1595491502812526 0.1706107373853764 0  0.15 0.2 0  0.1595491502812526 0.2293892626146237 0  0.1845491502812527 0.2475528258147577 0  0.2154508497187474 0.2475528258147577 0  0.5404508497187474 0.2293892626146237 0  0.55 0.2 0  0.5404508497187474 0.1706107373853764 0  0.5154508497187473 0.1524471741852423 0  0.4845491502812526 0.1524471741852423 0  0.4595491502812526 0.1706107373853764 0  0.45 0.2 0  0.4595491502812526 0.2293892626146237 0  0.4845491502812526 0.2475528258147577 0  0.5154508497187473 0.2475528258147577 0  1.1 0 0  0 0.205 0  1.1 0.41 0  0.55 0 0  0.55 0.41 0  0.275 0 0  0.275 0.41 0  1.65 0.41 0  1.65 0 0  1.375 0 0  1.375 0.41 0  1.925 0 0  1.925 0.41 0  0.8250000000000001 0.41 0  0.8250000000000001 0 0  1.5125 0.205 0  1.7875 0.205 0  0.9625000000000001 0.205 0  1.2375 0.205 0  2.2 0.205 0  0.7560964076246335 0.2151713709677419 0  1.99375 0.2152743902439024 0  2.0625 0 0  0.6875 0 0  2.0625 0.41 0  2.2 0.3075 0  0.6875 0.41 0  1.7875 0.41 0  1.375 0.1486128048780488 0  1.5125 0 0  1.7875 0 0  1.5125 0.41 0  0.9625000000000001 0 0  0.9625000000000001 0.41 0  0.4125 0 0  0.1375 0 0  0.1375 0.41 0  0.4125 0.41 0  1.2375 0 0  1.1 0.1486128048780487 0  1.2375 0.41 0  1.65 0.1486128048780487 0  1.126715909090909 0.2793064024390244 0  1.676715909090909 0.2793064024390244 0  1.348284090909091 0.2793064024390244 0  0.34375 0.3032389320646208 0  1.894702181800738 0.1282910975492754 0  2.092797818199262 0.1282910975492754 0  1.85625 0.3075 0  0.8630851210521902 0.286932093388664 0  0.89375 0.1025 0  0.35 0.1090282786671641 0  0 0.3075 0  0 0.1025 0  0.6526217841291382 0.288229645480046 0  0.7562500000000001 0.09660248895515888 0  0.6568633732316684 0.1557582854763441 0  2.099172119769978 0.25625 0  1.002356446954348 0.1010393851523063 0  1.99375 0.08395950269330846 0  1.459960956013612 0.3075 0  1.569025960719943 0.2986889805672169 0  1.03125 0.3278689922742084 0  0.75625 0.3247156761655783 0  1.959375 0.3126371951219512 0  1.749222215368287 0.1025 0  1.275777784631713 0.1025 0  2.2 0.1025 0  1.225938124459196 0.3075 0  1.550777784631713 0.1025 0  1.44375 0.07430640243902442 0  1.16875 0.07430640243902437 0  0.3528655045338512 0.2063263890916129 0  0.5890337614812103 0.08775733857679162 0  0.8504912436891263 0.190072835691683 0  1.899250267340833 0.2229966846119207 0  0.1020898364287272 0.3140258291809757 0  1.766482954545455 0.2934032012195123 0  1.051658316544432 0.2265720188842194 0  0.2 0.3400647632937836 0  1.421109702350723 0.2261157654379721 0  0.4812500000000001 0.41 0  0.4324401666997539 0.3216425986889796 0  0.098916018031319 0.09171660955420841 0  0.9508742791313441 0.2921736960864468 0  2.13125 0 0  2.118919042110979 0.3422084711244843 0  1.30625 0.41 0  0.20625 0 0  1.597888256393107 0.2173787389261347 0  0.4812500000000001 0 0  0.4324082967851086 0.08384041677422771 0  1.829299675393195 0.07400700849299596 0  0.568219932524165 0.3212274660843853 0  1.71875 0.41 0  0.268005226542646 0.08512186835670006 0  1.16875 0.41 0  2.038220665644273 0.332420740103091 0  0.6678017527842831 0.07701763866051195 0  0.89375 0.41 0  0.5111435174287687 0.07335351331957608 0  0.176193934632343 0.0734896648625108 0  0.07390688010811153 0.1697064032433452 0  0.05452951551825875 0.25625 0  0.61875 0.41 0  1.452769549894695 0.1548122580621249 0  1.369219062229598 0.07430640243902442 0  1.30625 0 0  1.720943423819132 0.1714577452753128 0  1.157188124459196 0.205 0  1.094219062229598 0.07430640243902437 0  1.304056576180868 0.1714577452753128 0  1.67579304192913 0.07430640243902437 0  0.2672907219039591 0.3037570723459566 0  1.209670467133757 0.1362100266964769 0  1.58125 0 0  1.03125 0 0  0.06875000000000001 0.41 0  0 0.35875 0  1.58125 0.41 0  1.631724228912893 0.3381867502687533 0  0.8240147050827157 0.1225233169495944 0  1.825608881788174 0.14499488549201 0  1.85625 0 0  1.44375 0 0  1.44375 0.41 0  1.85625 0.41 0  2.13125 0.41 0  0.7562500000000001 0.41 0  0.7562500000000001 0 0  0.89375 0 0  0.34375 0 0  0.34375 0.41 0  0.20625 0.41 0  0.06875000000000001 0 0  1.16875 0 0  1.03125 0.41 0  0.61875 0 0  1.71875 0 0  1.99375 0 0  1.99375 0.41 0  0.3972301426712326 0.2593842555611471 0  1.340625 0.3489494290853124 0  1.134375 0.3489494290853123 0  1.700180620188976 0.3438659752031281 0  0.5003922072260507 0.341765274319271 0  0.6212513815748759 0.2209216137134851 0  0.6885607720119526 0.215393731583638 0  1.033412357328477 0.1612902025713047 0  2.135782184673599 0.07126652247502523 0  1.668441847249787 0.2129203728327609 0  1.295782514339747 0.2378437748815763 0  1.409375 0.3520314716057996 0  2.129248544730567 0.1906135162504124 0  2.060771381434487 0.1989445750470348 0  2.013252586573865 0.1496169464686054 0  1.942766402200229 0.1734448904596831 0  1.895522487186454 0.06076163953489683 0  2.069553871656643 0.06605731020975725 0  0.9281250000000001 0.3539050257418612 0  1.274680914880868 0.3520219391081363 0  0.3030138498135347 0.2488370856812789 0  0.8223773249563684 0.341761430177996 0  0.9018164060227267 0.2326477848736739 0  0.8143027982392851 0.2440265179987191 0  0.7225087161029304 0.2699907246386231 0  1.614713220494657 0.09473434380863296 0  0.378125 0.3566194660323104 0  0.309375 0.3566194660323104 0  1.72990325744076 0.2380068107952482 0  0.6915936999299305 0.3429472631234433 0  0.6268087624932918 0.3466455500035671 0  1.356580098625191 0.2120393231351682 0  0.3060160055995138 0.1590148921620778 0  0.3954648733249218 0.156380553890791 0  2.034370752044885 0.2668681600792073 0  1.51768709249349 0.3426260931494756 0  1.561883724969884 0.1650446847858835 0  1.197344062229598 0.2523725417393646 0  0.9281250000000001 0.05124999999999999 0  1.804085235518364 0.3468178408964637 0  1.817887819205233 0.2589243285818559 0  0.9107805776841645 0.1653834539923287 0  1.905897727272727 0.3485060975609756 0  0 0.05125 0  0.844212276491354 0.0614201194265309 0  0.378125 0.05244637078450034 0  1.008571329007178 0.2705955969954818 0  0.7724048032149464 0.1559079561351474 0  0.7203054377831548 0.04941826955193545 0  1.192836486056382 0.3562350748565544 0  0.5967108020713719 0.1479294686523888 0  1.28257088594801 0.2944411014911587 0  0.7041890234548132 0.1222025174424443 0  1.474860187679412 0.2504218616229368 0  1.406767003493824 0.2829282258560709 0  0.3201325899091991 0.05890121548989159 0  0.5979220912872258 0.2727591995766724 0  1.845656689180403 0.1998310418452388 0  2.144958525570388 0.2909790873294231 0  2.2 0.15375 0  1.57794966442982 0.3540357145964566 0  0.9483181579620558 0.1214693369582054 0  0.0496154796471391 0.333125 0  1.508991196088596 0.1421783375065625 0  0.09776612425612034 0.2204896805326566 0  1.50436820029908 0.06143401634903343 0  1.223857000523521 0.0823554862453532 0  0.2531953886959507 0.3582003209055908 0  1.153316824384777 0.1289850171317837 0  2.148922302309752 0.1258841779285271 0  1.621993280276081 0.2841214267927899 0  1.550118654119087 0.2461998729100966 0  1.327182649291491 0.1216967252533594 0  1.753125 0.04556020050186112 0  1.271875 0.04556020050186116 0  0.9824282234771738 0.05051969257615314 0  1.039510847866381 0.05683351822678641 0  1.94956388244759 0.1180512551534177 0  1.949997712993411 0.04965831614304109 0  1.771961817615021 0.1530278789497521 0  1.909246823951428 0.2812757146784527 0  1.101974016627944 0.2038045618205013 0  0.7906250000000001 0.0444674049654372 0  1.948575539857022 0.2445328248721197 0  1.697271520964565 0.1233917627620729 0  1.065625 0.3689344961371042 0  1.085849084308977 0.3170853572226867 0  0.9840604787624379 0.3582077516409966 0  1.577403511714593 0.05463601888079143 0  0.05622663515370135 0.05493816910862376 0  0.8762396958822678 0.3392249777398821 0  1.751571320346033 0.3651102912045228 0  1.055327852410105 0.111864799513911 0  0.1583785085108421 0.2994699345738728 0  0.1455283439499995 0.3542795598723423 0  2.2 0.35875 0  0.225705107073232 0.05084786997482401 0  0.1455852234589313 0.1166494778469164 0  1.466879772203159 0.3611261772912453 0  1.990280163552011 0.3564754268533217 0  1.17471064520912 0.2990917256188288 0  0.7221925551074015 0.1739659241003985 0  0 0.25625 0  2.2 0.25625 0  2.2 0.05125 0  0 0.15375 0  1.853978576207987 0.35875 0  0.21965520498276 0.1015543880164422 0  1.515638456102889 0.2882700110184686 0  0.09048297387599738 0.3637717362208066 0  2.150453692751374 0.2387066338105111 0  1.323782677156475 0.04897634338873398 0  1.409375 0.03715320121951221 0  1.406484531114799 0.1087852750766809 0  1.134375 0.03715320121951218 0  1.627401732573545 0.04552157221025036 0  0.446875 0.3713289093361426 0  2.045405893604797 0.1105340662939892 0  1.255408269734577 0.1577307500159216 0  2.028125 0.03707597992059326 0  0.04420832937638274 0.128125 0  0.5817551710628505 0.3702615006034757 0  0.1197849154434487 0.2663398672460083 0  1.248258025468107 0.2565907092181813 0  0.1300647302703173 0.0508462728378621 0  0.7738123537510222 0.2761231499240648 0  1.203125 0.0366132337404304 0  0.5444207041612499 0.111205399508622 0  0.8016457771828226 0.1964238426015905 0  2.072662025974815 0.2975086504196739 0  0.4019040438866802 0.2103993403217561 0  0.4677372330974851 0.04827477407630658 0  0.8677218578847617 0.1432970430140788 0  1.058011122005847 0.2758866204059919 0  0.4429405887974043 0.2746184809910084 0  0.5843750000000001 0.03726989681835222 0  0.6318596133730142 0.1128692182767254 0  0.4862628454464408 0.2957029785303028 0  0.7805186758662764 0.3673578380827891 0  1.887722846421017 0.1760882698830035 0  0.3498893058880703 0.256189258793856 0  1.472640588990488 0.1118278026240017 0  1.865937103925594 0.2604137786483804 0
[...]
<PointData  Vectors="f_37"> 
<DataArray  type="Float64"  Name="f_37"  NumberOfComponents="3" format="ascii">-5.9873043697670666e-07 2.1201169823415349e-08 0.0000000000000000e+00  3.5695198830497341e-07 -2.9419366681790409e-08 0.0000000000000000e+00  -3.7572916935560465e-07 -5.6283105464541813e-10 0.0000000000000000e+00  1.3734293186106626e-06 -2.2229057906531548e-09 0.0000000000000000e+00  -1.0361720125059947e-06 1.5778241825610503e-08 0.0000000000000000e+00  -7.5194299684948687e-07 -6.1347000442282229e-07 0.0000000000000000e+00  -1.6217676117093899e-06 9.6929073959765602e-08 0.0000000000000000e+00  1.1109480737410158e-06 4.2254383409550091e-07 0.0000000000000000e+00  3.1185637868525300e-06 -5.1272233504869974e-08 0.0000000000000000e+00  -6.4912293424662448e-07 -2.5068261243720116e-08 0.0000000000000000e+00  -1.5998894398807127e-06 6.8876807258940733e-07 0.0000000000000000e+00  3.5503941712033727e-07 2.3217758416075457e-06 0.0000000000000000e+00  -3.9973627574898819e-06 -1.1227422394021652e-06 0.0000000000000000e+00  -3.4971254730867784e-06 -8.4763973577905853e-07 0.0000000000000000e+00  -3.3759055335472153e-06 1.7644866502288184e-06 0.0000000000000000e+00  -1.5399617424358442e-06 4.4672120023323151e-06 0.0000000000000000e+00  -2.4925980959994498e-06 9.1794977897826681e-07 0.0000000000000000e+00  -1.7472050099969076e-06 1.9678737567188333e-07 0.0000000000000000e+00  -1.9906483834087238e-06 -7.1348937813839950e-07 0.0000000000000000e+00  -3.1820554781175640e-06 2.6009852805435424e-06 0.0000000000000000e+00  -5.0515796184402865e-07 3.4774777352348966e-06 0.0000000000000000e+00  5.4179686072846156e-07 2.3168550290033403e-06 0.0000000000000000e+00  -8.6069482733367852e-08 5.3711764256045518e-07 0.0000000000000000e+00  -1.8036289376482007e-06 2.1752086649405624e-07 0.0000000000000000e+00  6.0192709589280296e-06 -1.0985091248336486e-06 0.0000000000000000e+00  1.5000025266499901e+00 -5.8983867182493051e-08 0.0000000000000000e+00  -3.6982837411588390e-06 -5.8724141620606867e-07 0.0000000000000000e+00  -2.9112156635440229e-06 -1.1771556249902440e-07 0.0000000000000000e+00  -3.7588523070753601e-07 3.1784969172535274e-08 0.0000000000000000e+00  -2.7762720658146803e-06 8.5415135193119926e-08 0.0000000000000000e+00  -9.9793399156747604e-07 -1.1743260311711769e-08 0.0000000000000000e+00  -3.3592544806733448e-07 -3.1381920669752482e-07 0.0000000000000000e+00  -1.7373283971607703e-06 4.0138587690889236e-08 0.0000000000000000e+00  4.0016294255337471e-06 -9.3989167864104203e-07 0.0000000000000000e+00  1.2565334522892452e-06 -3.6274811923499520e-07 0.0000000000000000e+00  5.9812381117082909e-07 -1.2681121051714392e-10 0.0000000000000000e+00  -5.5791836930536662e-07 7.9368735411332215e-09 0.0000000000000000e+00  -3.0367906184800813e-06 1.1769900473064055e-07 0.0000000000000000e+00  -1.1787477532935165e-08 1.7529405481971779e-07 0.0000000000000000e+00  9.9642510782083327e-01 6.4787679025165440e-02 0.0000000000000000e+00  1.1716171529025201e+00 -9.6429672103112395e-03 0.0000000000000000e+00  6.8103775255163757e-01 -6.6007814175377363e-02 0.0000000000000000e+00  8.5403640890786880e-01 3.4392124962638312e-02 0.0000000000000000e+00  1.2298233489011321e+00 -2.4038955779250032e-04 0.0000000000000000e+00  1.6459062081530687e-01 2.9382568791566791e-03 0.0000000000000000e+00  1.2290178829218696e+00 -5.6911030383110048e-03 0.0000000000000000e+00  -2.1978818918668461e-06 2.8144587067237143e-09 0.0000000000000000e+00  -2.2810215712806341e-07 -2.4175881175153903e-07 0.0000000000000000e+00  -8.9318071973605238e-07 -9.8515814982257386e-10 0.0000000000000000e+00  1.1846408598042704e+00 3.8763135566559505e-05 0.0000000000000000e+00  -1.8650120162791485e-06 -1.5760393190493728e-07 0.0000000000000000e+00  -1.3348539264716064e-06 1.4962853471419057e-07 0.0000000000000000e+00  1.3291277364502918e+00 3.4688084354272307e-02 0.0000000000000000e+00  2.7647678586949324e-06 3.2462632547651159e-07 0.0000000000000000e+00  -1.1656759981050694e-07 1.0242699895498288e-08 0.0000000000000000e+00  1.7238053686433684e-06 4.0987677417880353e-07 0.0000000000000000e+00  -7.2735266543873933e-06 5.1900126134896640e-07 0.0000000000000000e+00  5.3256541617939246e-06 3.1847297457249359e-07 0.0000000000000000e+00  -1.4522632011808401e-06 -7.3262159117323863e-08 0.0000000000000000e+00  3.2731441569846560e-07 6.4349247974116674e-08 0.0000000000000000e+00  6.1557491982498368e-07 1.3416600352341845e-07 0.0000000000000000e+00  -2.1350226373079885e-06 1.2669703877861751e-07 0.0000000000000000e+00  -4.0956223144433740e-06 9.6007663351514487e-07 0.0000000000000000e+00  1.4333811516816155e+00 4.0986800944149263e-02 0.0000000000000000e+00  8.3343117515151179e-07 5.3989143114334757e-07 0.0000000000000000e+00  1.1669155455082068e+00 -7.6158334701443668e-03 0.0000000000000000e+00  1.5386021279227391e+00 4.0384206104206677e-02 0.0000000000000000e+00  1.3123410517843330e+00 9.0661218355358418e-03 0.0000000000000000e+00  1.4656735727047632e+00 -2.2729835496920793e-03 0.0000000000000000e+00  1.9654118312826525e+00 3.0931572311434421e-02 0.0000000000000000e+00  1.2161578015801797e+00 4.2481945432475453e-03 0.0000000000000000e+00  1.2176242570573961e+00 -7.2492919316798315e-04 0.0000000000000000e+00  1.2064026690296559e+00 -7.6537445623649130e-03 0.0000000000000000e+00  1.7092243258692799e+00 -1.3175047408875998e-01 0.0000000000000000e+00  1.5194010662277551e+00 4.0789011423888487e-02 0.0000000000000000e+00  1.8608524138954119e+00 8.7030287402840370e-03 0.0000000000000000e+00  1.1249986011984434e+00 -1.9969033710303167e-07 0.0000000000000000e+00  1.1250027850698316e+00 -1.6691855011118768e-08 0.0000000000000000e+00  1.7464868675517602e+00 -1.5934923352349903e-01 0.0000000000000000e+00  1.6349278295202228e+00 1.5889336348303151e-01 0.0000000000000000e+00  7.7895687995539820e-01 8.9862734715748835e-02 0.0000000000000000e+00  1.2285234287282758e+00 -8.6731078960773937e-04 0.0000000000000000e+00  1.5022112140920023e+00 3.6044415721976725e-02 0.0000000000000000e+00  1.1233548752128701e+00 -6.2588067802286874e-04 0.0000000000000000e+00  1.3815807628452943e+00 1.0420674861195398e-03 0.0000000000000000e+00  1.3611381492366266e+00 -1.6129447637870074e-02 0.0000000000000000e+00  1.2176621100533906e+00 6.6281431603563675e-03 0.0000000000000000e+00  1.5627952912464096e+00 -1.1170074524765954e-01 0.0000000000000000e+00  1.1781766444065982e+00 -3.1780313883668669e-03 0.0000000000000000e+00  1.2077197773545554e+00 1.0815669219011842e-02 0.0000000000000000e+00  1.4068103756008981e+00 -4.1107441360390004e-02 0.0000000000000000e+00  1.1842201356924511e+00 -1.5686683226639060e-04 0.0000000000000000e+00  1.4581908852933476e+00 -1.9410963675281127e-04 0.0000000000000000e+00  1.2463652079769016e+00 -3.6690614353296028e-02 0.0000000000000000e+00  1.0717459818792814e+00 -4.5671084659701620e-03 0.0000000000000000e+00  1.0952276108115953e+00 -3.6315325459090206e-02 0.0000000000000000e+00  -3.4341534324913570e-01 -1.2351853595350409e-02 0.0000000000000000e+00  1.7896997499560245e+00 1.2685424232821194e-01 0.0000000000000000e+00  4.2545874701442721e-01 1.0286984814147630e-01 0.0000000000000000e+00  1.2206556368038533e+00 -1.2336786702692518e-02 0.0000000000000000e+00  1.1818900437755524e+00 2.5561343173591872e-01 0.0000000000000000e+00  1.2520743007976416e+00 -7.2959435576664330e-03 0.0000000000000000e+00  1.0211564810098774e+00 -6.3930160261717203e-02 0.0000000000000000e+00  1.3814853267116676e+00 2.1822249393817958e-01 0.0000000000000000e+00  9.7360111126666138e-01 9.2095763386563865e-03 0.0000000000000000e+00  1.6658102141178276e-06 -3.5749979456745234e-08 0.0000000000000000e+00  1.8402734529041942e+00 -6.6934518891481165e-02 0.0000000000000000e+00  1.1435339826123512e+00 -2.5636188960140815e-01 0.0000000000000000e+00  1.6303127913615580e+00 -9.4136052148545910e-02 0.0000000000000000e+00  -1.0734702522621627e-06 -1.0866225171311025e-09 0.0000000000000000e+00  1.0306788931798692e+00 9.0187367474233316e-05 0.0000000000000000e+00  4.6149618308914341e-07 -1.1968802477946059e-08 0.0000000000000000e+00  -6.7884499584671499e-06 2.7330034464462105e-07 0.0000000000000000e+00  1.1552481027200625e+00 -3.1531239510664659e-02 0.0000000000000000e+00  1.6249590459377952e-07 -5.5341164611509883e-08 0.0000000000000000e+00  1.8288420313481215e+00 7.3836973703326203e-02 0.0000000000000000e+00  1.0756724922984899e+00 1.9154242277237645e-03 0.0000000000000000e+00  1.7843451105706629e+00 -1.1326288137825687e-01 0.0000000000000000e+00  -5.0004238400430408e-06 -1.4821271405592501e-07 0.0000000000000000e+00  1.7976028531633241e+00 -1.4150465884016100e-01 0.0000000000000000e+00  -4.1782725667408261e-06 -2.5862345052999309e-08 0.0000000000000000e+00  1.0939520889117698e+00 -2.6937472282003247e-04 0.0000000000000000e+00  1.6092581126505936e+00 1.4255730119232696e-01 0.0000000000000000e+00  -6.3422001802174692e-08 7.5586548291811254e-07 0.0000000000000000e+00  1.7295714936498856e+00 7.4925868242716298e-02 0.0000000000000000e+00  1.3595534206701441e+00 -3.0231912778145653e-01 0.0000000000000000e+00  1.3399554491530867e+00 -1.2276419590324471e-01 0.0000000000000000e+00  1.3729736990425307e+00 1.2472413809428620e-01 0.0000000000000000e+00  2.4744858314625136e-08 -6.8905049767575314e-08 0.0000000000000000e+00  1.3087335928165109e+00 7.0028090540896551e-02 0.0000000000000000e+00  1.1266803434664561e+00 1.7897483444093060e-02 0.0000000000000000e+00  -5.0009396334138755e-06 -1.6480035655367377e-07 0.0000000000000000e+00  1.1477703946868034e+00 -6.5416293561790075e-03 0.0000000000000000e+00  8.2211591061884171e-01 4.8405695937845584e-02 0.0000000000000000e+00  1.1134368738948135e+00 1.0946853893080175e-02 0.0000000000000000e+00  9.8597110659778553e-01 -4.6729870854577332e-02 0.0000000000000000e+00  1.0911162655968987e+00 -2.9788680828314175e-03 0.0000000000000000e+00  1.9212101113778883e+00 1.8659023717211484e-01 0.0000000000000000e+00  1.4328410152273903e+00 -2.4845454554118320e-02 0.0000000000000000e+00  7.3191785045447795e-07 3.5421548779332586e-07 0.0000000000000000e+00  -2.0029349242729072e-06 -3.7580396912953671e-07 0.0000000000000000e+00  -7.7558177125595121e-07 -5.5654787840365977e-08 0.0000000000000000e+00  6.5625204505425982e-01 6.6177045001933619e-09 0.0000000000000000e+00  7.1497239388242034e-07 4.9128736473752288e-08 0.0000000000000000e+00  1.0394211155264641e+00 2.5565162571380001e-02 0.0000000000000000e+00  1.5991154816067792e+00 1.2657594094832264e-01 0.0000000000000000e+00  1.2178960760376289e+00 9.7760866327764474e-03 0.0000000000000000e+00  -3.3110537328677402e-07 5.4125536066542613e-10 0.0000000000000000e+00  2.2453346948669189e-06 -3.3440902597719592e-07 0.0000000000000000e+00  -1.8036900724745339e-06 3.3113761310385709e-08 0.0000000000000000e+00  -1.4079167023991782e-06 2.8924514732203791e-08 0.0000000000000000e+00  -1.0299225162055118e-06 5.8363043691677544e-11 0.0000000000000000e+00  -3.7275675654374901e-06 -1.7513737319779328e-07 0.0000000000000000e+00  1.2542864785173494e-06 -4.0520784549115240e-07 0.0000000000000000e+00  -3.0920135227525226e-06 5.4935114933561575e-07 0.0000000000000000e+00  -2.2855320512377798e-07 5.4728836096003324e-09 0.0000000000000000e+00  6.4465332819365804e-07 4.5683340491462481e-08 0.0000000000000000e+00  1.0844286467133187e-06 -8.8278940030659112e-08 0.0000000000000000e+00  -8.3742989732605268e-07 1.4675864147213666e-07 0.0000000000000000e+00  5.2840361048780227e-06 -1.1489191972250245e-07 0.0000000000000000e+00  6.3015776693572473e-07 -5.5282639133616762e-07 0.0000000000000000e+00  -2.8940873781618177e-06 -3.7331923437213687e-07 0.0000000000000000e+00  -3.0971283655374156e-06 -1.1066942096175354e-07 0.0000000000000000e+00  -1.3609503069437803e-06 7.6972373319397337e-09 0.0000000000000000e+00  -3.7402544374231584e-06 4.6680159624187174e-10 0.0000000000000000e+00  7.3700550333115067e-01 -4.4558643049833362e-02 0.0000000000000000e+00  9.3149577787443472e-01 1.5821668397679550e-02 0.0000000000000000e+00  9.1738312858416615e-01 2.2024894589697183e-02 0.0000000000000000e+00  1.0231510397153822e+00 1.3636633496692672e-02 0.0000000000000000e+00  1.6512817705672320e+00 -7.1976285751780250e-02 0.0000000000000000e+00  -4.2576455121173508e-04 -4.7904309016494416e-02 0.0000000000000000e+00  2.6146081779665005e-03 -6.1069830081492166e-02 0.0000000000000000e+00  1.1486930012071535e+00 -3.4973957674522189e-03 0.0000000000000000e+00  1.0548036573353725e+00 -1.3244663393865993e-04 0.0000000000000000e+00  1.1618031572476928e+00 -3.9605576958254944e-02 0.0000000000000000e+00  1.1921526653786945e+00 -4.7893987615788829e-02 0.0000000000000000e+00  9.0387132277631177e-01 1.3827866474543237e-02 0.0000000000000000e+00  1.2296876106131034e+00 -7.6132774539279990e-04 0.0000000000000000e+00  1.2296133290645574e+00 -2.0351968816218870e-03 0.0000000000000000e+00  1.2246246907640241e+00 -1.7852288642809249e-03 0.0000000000000000e+00  1.2206155123151869e+00 -2.8976749577135225e-03 0.0000000000000000e+00  9.7252257349079840e-01 3.0512059974513748e-04 0.0000000000000000e+00  1.0171510423983294e+00 -2.8568869311594754e-04 0.0000000000000000e+00  8.5471987685246720e-01 -3.3181403885456782e-02 0.0000000000000000e+00  8.7945470345912879e-01 1.0350383215231601e-02 0.0000000000000000e+00  2.3843072047058847e-01 5.7757305389361913e-02 0.0000000000000000e+00  1.2480709990089198e+00 -8.1173838862707570e-02 0.0000000000000000e+00  1.0562849459542745e+00 -7.6949040622592141e-02 0.0000000000000000e+00  1.0477371443531203e+00 -6.0163684834781087e-02 0.0000000000000000e+00  1.4992580876320694e+00 -1.3947117781727947e-01 0.0000000000000000e+00  1.2013003659630230e+00 -2.1732677476051884e-02 0.0000000000000000e+00  1.5362087172709342e+00 -2.7929575586285168e-02 0.0000000000000000e+00  1.4865025036807336e+00 3.2531565366192464e-02 0.0000000000000000e+00  1.2245206419977506e+00 -1.8070328768692263e-02 0.0000000000000000e+00  1.4305757280675924e+00 -9.8906699533066536e-02 0.0000000000000000e+00  1.4761165459002297e+00 -9.7565630245621787e-02 0.0000000000000000e+00  8.9857171469148189e-01 -6.6437651920911570e-02 0.0000000000000000e+00  7.4476590990352434e-02 -5.1547261349108579e-02 0.0000000000000000e+00  2.8207073244236647e-01 2.5148960465420898e-02 0.0000000000000000e+00  1.2275337347024606e+00 -2.4230837924450470e-03 0.0000000000000000e+00  1.0112879966465351e+00 8.9163921327970411e-03 0.0000000000000000e+00  1.1153814371166142e+00 2.4472497614698618e-02 0.0000000000000000e+00  1.3167386283567395e+00 2.2376867427323182e-02 0.0000000000000000e+00  7.9559279222080403e-01 6.5889010376743683e-03 0.0000000000000000e+00  1.0075019007445360e+00 -3.2103642303955657e-03 0.0000000000000000e+00  1.2441622721031709e+00 -1.6379520796212483e-02 0.0000000000000000e+00  9.2214867115161436e-01 4.9664377028300954e-02 0.0000000000000000e+00  9.8428547956968282e-01 -1.7776096723507175e-03 0.0000000000000000e+00  6.5624906837254859e-01 8.1312714431108089e-08 0.0000000000000000e+00  1.0559407757462049e+00 3.8281532575561210e-02 0.0000000000000000e+00  1.5692828262353027e+00 3.5346635292420527e-02 0.0000000000000000e+00  1.5952070418603701e+00 -5.3619109389221931e-02 0.0000000000000000e+00  1.1325658935511140e+00 1.7528351565217662e-01 0.0000000000000000e+00  1.0512151418991011e+00 7.8476957202940234e-02 0.0000000000000000e+00  8.0915669081109698e-01 1.3230192101786782e-02 0.0000000000000000e+00  7.9885904002798747e-01 7.3349223128114385e-02 0.0000000000000000e+00  1.5031946143351300e+00 -1.4783481701930255e-02 0.0000000000000000e+00  1.6903603585045153e+00 1.9647548036711590e-01 0.0000000000000000e+00  1.2415587951201601e+00 1.4644741350041365e-02 0.0000000000000000e+00  1.4408356836498963e+00 1.7728910789719603e-02 0.0000000000000000e+00  1.6078871941754938e+00 -1.8030435960948148e-02 0.0000000000000000e+00  1.4958783798271116e+00 -1.4470088487755112e-01 0.0000000000000000e+00  1.1936329288014855e+00 -3.9229111647066470e-03 0.0000000000000000e+00  1.2108815169682727e+00 -1.1040251702994658e-04 0.0000000000000000e+00  1.2275190377329888e+00 -2.7724179655572010e-04 0.0000000000000000e+00  8.8029810273247489e-01 1.7421485602368766e-02 0.0000000000000000e+00  1.5488002769017561e+00 2.2968433252502456e-02 0.0000000000000000e+00  9.4150502202399167e-01 9.3640791888095237e-02 0.0000000000000000e+00  1.3068579180498068e+00 1.8715126865779464e-02 0.0000000000000000e+00  1.2233487282804725e+00 1.6072336356307784e-01 0.0000000000000000e+00  9.2575647419759910e-01 -3.1101304804556754e-02 0.0000000000000000e+00  1.2153692315300451e+00 -5.4087205967619435e-02 0.0000000000000000e+00  1.3621252500135188e+00 9.7324627198625308e-02 0.0000000000000000e+00  1.5284648738896600e+00 1.0002305385698023e-02 0.0000000000000000e+00  1.2163142261766733e+00 -3.5202287574987882e-04 0.0000000000000000e+00  1.3587198075469904e+00 -8.0502749409858843e-03 0.0000000000000000e+00  1.3044744452704113e+00 -2.9998115541238535e-02 0.0000000000000000e+00  1.4529678295861630e+00 9.0357765377209150e-04 0.0000000000000000e+00  8.1452158530312513e-01 1.7744859629013903e-03 0.0000000000000000e+00  7.1393885852444428e-01 -1.9907141645075760e-02 0.0000000000000000e+00  7.5054581500108752e-01 1.0079006810377714e-02 0.0000000000000000e+00  8.3616393725378380e-01 1.7582136134252205e-02 0.0000000000000000e+00  1.2069701647016668e+00 2.5874709512857015e-04 0.0000000000000000e+00  8.5901587749065034e-01 -2.4880965512814353e-04 0.0000000000000000e+00  1.2044515359490326e+00 1.1398067809863896e-02 0.0000000000000000e+00  1.2344110360550951e+00 -1.0643026556329604e-02 0.0000000000000000e+00  7.8846359250775577e-01 -1.9961911092297707e-02 0.0000000000000000e+00  7.9211492043840503e-01 4.1143691839296066e-02 0.0000000000000000e+00  1.2324157219488094e+00 -1.1255226286326523e-02 0.0000000000000000e+00  1.2319644519688320e+00 4.7100109211630778e-03 0.0000000000000000e+00  5.4953898871677487e-01 1.2397767261023184e-02 0.0000000000000000e+00  1.3503205432757033e+00 3.1361016996822991e-02 0.0000000000000000e+00  7.3100111151817537e-01 -7.7449007757512582e-03 0.0000000000000000e+00  8.9171805820656347e-01 -2.3801916519642037e-02 0.0000000000000000e+00  7.3881627731100230e-01 -7.9195261991962251e-02 0.0000000000000000e+00  1.2024655883448552e+00 -7.4038996735580523e-02 0.0000000000000000e+00  8.1293370777521745e-01 -1.2850457456115178e-05 0.0000000000000000e+00  1.5620682644520318e+00 4.4896741047796736e-02 0.0000000000000000e+00  1.5284119767351838e+00 4.7649304310240698e-01 0.0000000000000000e+00  1.0047807586068829e+00 1.8239638930381252e-01 0.0000000000000000e+00  8.7822057613202142e-01 1.8820571660990948e-04 0.0000000000000000e+00  1.3189859853828694e+00 -1.2575164220011656e-01 0.0000000000000000e+00  1.4487581254950448e+00 -5.4602284078035368e-01 0.0000000000000000e+00  7.8232944475450272e-01 9.9046817116605936e-03 0.0000000000000000e+00  9.0354665591033456e-01 -2.6874687453993108e-04 0.0000000000000000e+00  1.5149982793417021e+00 2.2899107661318346e-02 0.0000000000000000e+00  4.7909906439950339e-01 9.4247488484783648e-02 0.0000000000000000e+00  1.4062540588306274e+00 6.0995870781693015e-08 0.0000000000000000e+00  1.2278191282067950e+00 -1.3753715936680133e-04 0.0000000000000000e+00  8.7855123645187982e-01 -1.7367002786426532e-04 0.0000000000000000e+00  1.4062506176515170e+00 -2.1423358733839747e-08 0.0000000000000000e+00  8.8420076868930886e-01 -1.9643570789952009e-03 0.0000000000000000e+00  1.8369927974036200e+00 -3.2989117172529270e-01 0.0000000000000000e+00  1.4433575916742878e+00 -2.6051891454786359e-02 0.0000000000000000e+00  7.1446706757979805e-01 9.8625246929459759e-02 0.0000000000000000e+00  1.2295445108148177e+00 -4.4420230572518593e-04 0.0000000000000000e+00  7.7881053652542154e-01 -1.9105184478134531e-03 0.0000000000000000e+00  5.8873511739673845e-01 -5.5238525333256799e-04 0.0000000000000000e+00  1.4119788769766821e+00 4.8290279142669722e-02 0.0000000000000000e+00  4.8315260341698568e-01 -9.5863523469944725e-03 0.0000000000000000e+00  8.0814489292910141e-01 -8.5689454356681904e-03 0.0000000000000000e+00  1.305350668878152