<?xml version="1.0"?>
<VTKFile type="UnstructuredGrid"  version="0.1"  >
<UnstructuredGrid>
<Piece  NumberOfPoints="2426" NumberOfCells="4534">
<Points>
<DataArray  type="Float64"  NumberOfComponents="3"  format="ascii">0 0.41 0  0 0 0  2.2 0 0  2.2 0.41 0  0.2404508497187474 0.2293892626146237 0  0.25 0.2 0  0.2404508497187474 0.1706107373853764 0  0.2154508497187474 0.1524471741852423 0  0.1845491502812526 0.1524471741852423 0  0.1595491502812526 0.1706107373853764 0  0.15 0.2 0  0.1595491502812526 0.2293892626146237 0  0.1845491502812527 0.2475528258147577 0  0.2154508497187474 0.2475528258147577 0  0.5404508497187474 0.2293892626146237 0  0.55 0.2 0  0.5404508497187474 0.1706107373853764 0  0.5154508497187473 0.1524471741852423 0  0.4845491502812526 0.1524471741852423 0  0.4595491502812526 0.1706107373853764 0  0.45 0.2 0  0.4595491502812526 0.2293892626146237 0  0.4845491502812526 0.2475528258147577 0  0.5154508497187473 0.2475528258147577 0  1.1 0 0  0 0.205 0  1.1 0.41 0  0.55 0 0  0.55 0.41 0  0.275 0 0  0.275 0.41 0  1.65 0.41 0  1.65 0 0  1.375 0 0  1.375 0.41 0  1.925 0 0  1.925 0.41 0  0.8250000000000001 0.41 0  0.8250000000000001 0 0  1.5125 0.205 0  1.7875 0.205 0  0.9625000000000001 0.205 0  1.2375 0.205 0  2.2 0.205 0  0.7560964076246335 0.2151713709677419 0  1.99375 0.2152743902439024 0  2.0625 0 0  0.6875 0 0  2.0625 0.41 0  2.2 0.3075 0  0.6875 0.41 0  1.7875 0.41 0  1.375 0.1486128048780488 0  1.5125 0 0  1.7875 0 0  1.5125 0.41 0  0.9625000000000001 0 0  0.9625000000000001 0.41 0  0.4125 0 0  0.1375 0 0  0.1375 0.41 0  0.4125 0.41 0  1.2375 0 0  1.1 0.1486128048780487 0  1.2375 0.41 0  1.65 0.1486128048780487 0  1.126715909090909 0.2793064024390244 0  1.676715909090909 0.2793064024390244 0  1.348284090909091 0.2793064024390244 0  0.34375 0.3032389320646208 0  1.894702181800738 0.1282910975492754 0  2.092797818199262 0.1282910975492754 0  1.85625 0.3075 0  0.8630851210521902 0.286932093388664 0  0.89375 0.1025 0  0.35 0.1090282786671641 0  0 0.3075 0  0 0.1025 0  0.6526217841291382 0.288229645480046 0  0.7562500000000001 0.09660248895515888 0  0.6568633732316684 0.1557582854763441 0  2.099172119769978 0.25625 0  1.002356446954348 0.1010393851523063 0  1.99375 0.08395950269330846 0  1.459960956013612 0.3075 0  1.569025960719943 0.2986889805672169 0  1.03125 0.3278689922742084 0  0.75625 0.3247156761655783 0  1.959375 0.3126371951219512 0  1.749222215368287 0.1025 0  1.275777784631713 0.1025 0  2.2 0.1025 0  1.225938124459196 0.3075 0  1.550777784631713 0.1025 0  1.44375 0.07430640243902442 0  1.16875 0.07430640243902437 0  0.3528655045338512 0.2063263890916129 0  0.5890337614812103 0.08775733857679162 0  0.8504912436891263 0.190072835691683 0  1.899250267340833 0.2229966846119207 0  0.1020898364287272 0.3140258291809757 0  1.766482954545455 0.2934032012195123 0  1.051658316544432 0.2265720188842194 0  0.2 0.3400647632937836 0  1.421109702350723 0.2261157654379721 0  0.4812500000000001 0.41 0  0.4324401666997539 0.3216425986889796 0  0.098916018031319 0.09171660955420841 0  0.9508742791313441 0.2921736960864468 0  2.13125 0 0  2.118919042110979 0.3422084711244843 0  1.30625 0.41 0  0.20625 0 0  1.597888256393107 0.2173787389261347 0  0.4812500000000001 0 0  0.4324082967851086 0.08384041677422771 0  1.829299675393195 0.07400700849299596 0  0.568219932524165 0.3212274660843853 0  1.71875 0.41 0  0.268005226542646 0.08512186835670006 0  1.16875 0.41 0  2.038220665644273 0.332420740103091 0  0.6678017527842831 0.07701763866051195 0  0.89375 0.41 0  0.5111435174287687 0.07335351331957608 0  0.176193934632343 0.0734896648625108 0  0.07390688010811153 0.1697064032433452 0  0.05452951551825875 0.25625 0  0.61875 0.41 0  1.452769549894695 0.1548122580621249 0  1.369219062229598 0.07430640243902442 0  1.30625 0 0  1.720943423819132 0.1714577452753128 0  1.157188124459196 0.205 0  1.094219062229598 0.07430640243902437 0  1.304056576180868 0.1714577452753128 0  1.67579304192913 0.07430640243902437 0  0.2672907219039591 0.3037570723459566 0  1.209670467133757 0.1362100266964769 0  1.58125 0 0  1.03125 0 0  0.06875000000000001 0.41 0  0 0.35875 0  1.58125 0.41 0  1.631724228912893 0.3381867502687533 0  0.8240147050827157 0.1225233169495944 0  1.825608881788174 0.14499488549201 0  1.85625 0 0  1.44375 0 0  1.44375 0.41 0  1.85625 0.41 0  2.13125 0.41 0  0.7562500000000001 0.41 0  0.7562500000000001 0 0  0.89375 0 0  0.34375 0 0  0.34375 0.41 0  0.20625 0.41 0  0.06875000000000001 0 0  1.16875 0 0  1.03125 0.41 0  0.61875 0 0  1.71875 0 0  1.99375 0 0  1.99375 0.41 0  0.3972301426712326 0.2593842555611471 0  1.340625 0.3489494290853124 0  1.134375 0.3489494290853123 0  1.700180620188976 0.3438659752031281 0  0.5003922072260507 0.341765274319271 0  0.6212513815748759 0.2209216137134851 0  0.6885607720119526 0.215393731583638 0  1.033412357328477 0.1612902025713047 0  2.135782184673599 0.07126652247502523 0  1.668441847249787 0.2129203728327609 0  1.295782514339747 0.2378437748815763 0  1.409375 0.3520314716057996 0  2.129248544730567 0.1906135162504124 0  2.060771381434487 0.1989445750470348 0  2.013252586573865 0.1496169464686054 0  1.942766402200229 0.1734448904596831 0  1.895522487186454 0.06076163953489683 0  2.069553871656643 0.06605731020975725 0  0.9281250000000001 0.3539050257418612 0  1.274680914880868 0.3520219391081363 0  0.3030138498135347 0.2488370856812789 0  0.8223773249563684 0.341761430177996 0  0.9018164060227267 0.2326477848736739 0  0.8143027982392851 0.2440265179987191 0  0.7225087161029304 0.2699907246386231 0  1.614713220494657 0.09473434380863296 0  0.378125 0.3566194660323104 0  0.309375 0.3566194660323104 0  1.72990325744076 0.2380068107952482 0  0.6915936999299305 0.3429472631234433 0  0.6268087624932918 0.3466455500035671 0  1.356580098625191 0.2120393231351682 0  0.3060160055995138 0.1590148921620778 0  0.3954648733249218 0.156380553890791 0  2.034370752044885 0.2668681600792073 0  1.51768709249349 0.3426260931494756 0  1.561883724969884 0.1650446847858835 0  1.197344062229598 0.2523725417393646 0  0.9281250000000001 0.05124999999999999 0  1.804085235518364 0.3468178408964637 0  1.817887819205233 0.2589243285818559 0  0.9107805776841645 0.1653834539923287 0  1.905897727272727 0.3485060975609756 0  0 0.05125 0  0.844212276491354 0.0614201194265309 0  0.378125 0.05244637078450034 0  1.008571329007178 0.2705955969954818 0  0.7724048032149464 0.1559079561351474 0  0.7203054377831548 0.04941826955193545 0  1.192836486056382 0.3562350748565544 0  0.5967108020713719 0.1479294686523888 0  1.28257088594801 0.2944411014911587 0  0.7041890234548132 0.1222025174424443 0  1.474860187679412 0.2504218616229368 0  1.406767003493824 0.2829282258560709 0  0.3201325899091991 0.05890121548989159 0  0.5979220912872258 0.2727591995766724 0  1.845656689180403 0.1998310418452388 0  2.144958525570388 0.2909790873294231 0  2.2 0.15375 0  1.57794966442982 0.3540357145964566 0  0.9483181579620558 0.1214693369582054 0  0.0496154796471391 0.333125 0  1.508991196088596 0.1421783375065625 0  0.09776612425612034 0.2204896805326566 0  1.50436820029908 0.06143401634903343 0  1.223857000523521 0.0823554862453532 0  0.2531953886959507 0.3582003209055908 0  1.153316824384777 0.1289850171317837 0  2.148922302309752 0.1258841779285271 0  1.621993280276081 0.2841214267927899 0  1.550118654119087 0.2461998729100966 0  1.327182649291491 0.1216967252533594 0  1.753125 0.04556020050186112 0  1.271875 0.04556020050186116 0  0.9824282234771738 0.05051969257615314 0  1.039510847866381 0.05683351822678641 0  1.94956388244759 0.1180512551534177 0  1.949997712993411 0.04965831614304109 0  1.771961817615021 0.1530278789497521 0  1.909246823951428 0.2812757146784527 0  1.101974016627944 0.2038045618205013 0  0.7906250000000001 0.0444674049654372 0  1.948575539857022 0.2445328248721197 0  1.697271520964565 0.1233917627620729 0  1.065625 0.3689344961371042 0  1.085849084308977 0.3170853572226867 0  0.9840604787624379 0.3582077516409966 0  1.577403511714593 0.05463601888079143 0  0.05622663515370135 0.05493816910862376 0  0.8762396958822678 0.3392249777398821 0  1.751571320346033 0.3651102912045228 0  1.055327852410105 0.111864799513911 0  0.1583785085108421 0.2994699345738728 0  0.1455283439499995 0.3542795598723423 0  2.2 0.35875 0  0.225705107073232 0.05084786997482401 0  0.1455852234589313 0.1166494778469164 0  1.466879772203159 0.3611261772912453 0  1.990280163552011 0.3564754268533217 0  1.17471064520912 0.2990917256188288 0  0.7221925551074015 0.1739659241003985 0  0 0.25625 0  2.2 0.25625 0  2.2 0.05125 0  0 0.15375 0  1.853978576207987 0.35875 0  0.21965520498276 0.1015543880164422 0  1.515638456102889 0.2882700110184686 0  0.09048297387599738 0.3637717362208066 0  2.150453692751374 0.2387066338105111 0  1.323782677156475 0.04897634338873398 0  1.409375 0.03715320121951221 0  1.406484531114799 0.1087852750766809 0  1.134375 0.03715320121951218 0  1.627401732573545 0.04552157221025036 0  0.446875 0.3713289093361426 0  2.045405893604797 0.1105340662939892 0  1.255408269734577 0.1577307500159216 0  2.028125 0.03707597992059326 0  0.04420832937638274 0.128125 0  0.5817551710628505 0.3702615006034757 0  0.1197849154434487 0.2663398672460083 0  1.248258025468107 0.2565907092181813 0  0.1300647302703173 0.0508462728378621 0  0.7738123537510222 0.2761231499240648 0  1.203125 0.0366132337404304 0  0.5444207041612499 0.111205399508622 0  0.8016457771828226 0.1964238426015905 0  2.072662025974815 0.2975086504196739 0  0.4019040438866802 0.2103993403217561 0  0.4677372330974851 0.04827477407630658 0  0.8677218578847617 0.1432970430140788 0  1.058011122005847 0.2758866204059919 0  0.4429405887974043 0.2746184809910084 0  0.5843750000000001 0.03726989681835222 0  0.6318596133730142 0.1128692182767254 0  0.4862628454464408 0.2957029785303028 0  0.7805186758662764 0.3673578380827891 0  1.887722846421017 0.1760882698830035 0  0.3498893058880703 0.256189258793856 0  1.472640588990488 0.1118278026240017 0  1.865937103925594 0.2604137786483804 0
[...]
<PointData  Vectors="f_37"> 
<DataArray  type="Float64"  Name="f_37"  NumberOfComponents="3" format="ascii">-5.8575574571653127e-07 2.1447764044054222e-08 0.0000000000000000e+00  3.3861572277336362e-07 -3.0056687840467322e-08 0.0000000000000000e+00  -2.8567483226758432e-07 -1.0794692821542363e-09 0.0000000000000000e+00  1.5179562892610241e-06 -3.4384052392364377e-09 0.0000000000000000e+00  -1.6553909997009481e-06 -8.4594654725277030e-07 0.0000000000000000e+00  -1.1992875248257908e-06 -2.6586429177788565e-06 0.0000000000000000e+00  -1.7823640396043417e-06 -1.0205963218591511e-06 0.0000000000000000e+00  9.1457099508152398e-07 8.9333748750934073e-07 0.0000000000000000e+00  4.7093132568351226e-06 1.8769699336542475e-06 0.0000000000000000e+00  5.7909019848588638e-07 -5.6487828968942786e-07 0.0000000000000000e+00  -1.2328428443970478e-06 -6.1667369512134376e-07 0.0000000000000000e+00  2.8219553019564016e-08 2.4197677283999011e-06 0.0000000000000000e+00  -3.8884026411602210e-06 -1.0583726901203750e-06 0.0000000000000000e+00  -3.6833353654491704e-06 -1.3354297671673026e-06 0.0000000000000000e+00  -3.3111584094032664e-06 -8.9186027899660975e-07 0.0000000000000000e+00  -1.6237603827172617e-06 1.2178835049407573e-07 0.0000000000000000e+00  -1.4975363216219903e-06 -1.6046311712360109e-08 0.0000000000000000e+00  -4.3203850982501518e-06 1.6411369450735702e-07 0.0000000000000000e+00  -3.1277417578016374e-07 2.9331504019708074e-06 0.0000000000000000e+00  1.3229619784587198e-05 -1.7646460315269166e-06 0.0000000000000000e+00  4.0025131681557538e-06 2.5455489700618431e-06 0.0000000000000000e+00  4.5786771608978304e-07 1.9630773927936026e-06 0.0000000000000000e+00  5.3603865132813039e-06 2.2329401697056671e-07 0.0000000000000000e+00  2.1993107536849038e-06 -1.2977455683918186e-06 0.0000000000000000e+00  -2.4757134655154694e-06 4.6464089096452949e-08 0.0000000000000000e+00  1.5000026129210233e+00 -3.7382189771965025e-07 0.0000000000000000e+00  -3.7257617091522032e-06 -5.1438273697829643e-07 0.0000000000000000e+00  -1.8210068933468197e-06 3.4129611110404465e-08 0.0000000000000000e+00  -1.4440136979502601e-06 -1.2798013031676492e-07 0.0000000000000000e+00  -3.2122860061356989e-06 1.0407160480068595e-08 0.0000000000000000e+00  -1.2604937542403897e-06 5.4582112688989716e-08 0.0000000000000000e+00  4.3570427708472709e-07 2.9092674267920440e-09 0.0000000000000000e+00  1.6090067354048772e-07 -1.8900944090476782e-09 0.0000000000000000e+00  3.1953710595842182e-06 -5.5933565397668721e-09 0.0000000000000000e+00  2.0886900219064457e-06 8.4062040316679743e-09 0.0000000000000000e+00  6.6623487050398644e-07 4.3623128642882341e-09 0.0000000000000000e+00  -8.2676425996392722e-07 -2.1235051778163576e-09 0.0000000000000000e+00  -7.0322518988903233e-07 -3.5831911734436836e-07 0.0000000000000000e+00  -3.0440886960590830e-06 4.0063562825135188e-07 0.0000000000000000e+00  1.1700065717243298e+00 -7.2720782519316847e-04 0.0000000000000000e+00  1.1702217899728888e+00 -5.0801687183795460e-07 0.0000000000000000e+00  6.3781108792925345e-01 -2.2549497907072384e-02 0.0000000000000000e+00  1.1139456950690210e+00 -3.3685416529342983e-03 0.0000000000000000e+00  1.1700711233126022e+00 -3.1870603172324117e-05 0.0000000000000000e+00  2.1805917293993218e-01 -3.7542727729800787e-02 0.0000000000000000e+00  1.1701440591401127e+00 -3.3152841656139935e-05 0.0000000000000000e+00  -2.6109350195000568e-06 3.2082555699060159e-09 0.0000000000000000e+00  1.3993641828098308e-06 -3.4549368542058307e-07 0.0000000000000000e+00  -1.1082411899203395e-06 2.4262955375571497e-09 0.0000000000000000e+00  1.1614805256933900e+00 3.9396218344784405e-05 0.0000000000000000e+00  1.2880819611509880e-06 4.0427815231312461e-07 0.0000000000000000e+00  -7.2581560260092282e-07 -1.3961261537866693e-09 0.0000000000000000e+00  1.1666537136248674e+00 1.5161987234011971e-04 0.0000000000000000e+00  3.2692754852354405e-06 -1.6193729745697061e-09 0.0000000000000000e+00  -3.8125567976403887e-07 -1.1516091647228467e-09 0.0000000000000000e+00  7.1448727483310000e-07 -1.4120501903192476e-09 0.0000000000000000e+00  -9.0889250841376567e-07 -3.0105222219804305e-07 0.0000000000000000e+00  2.4530332914025878e-06 4.3031175547981558e-07 0.0000000000000000e+00  -9.8426178799705479e-07 -1.6205829441552664e-07 0.0000000000000000e+00  4.4789357133593078e-07 5.5920310740596852e-08 0.0000000000000000e+00  5.4907933259839358e-07 1.5238841522034728e-07 0.0000000000000000e+00  -2.0074273892353538e-06 1.2793142279753523e-07 0.0000000000000000e+00  -7.2604520473203678e-07 1.1499175401894185e-07 0.0000000000000000e+00  1.2284382242509513e+00 1.7821665609318142e-02 0.0000000000000000e+00  -2.2064152268293424e-06 -9.0353847743955209e-08 0.0000000000000000e+00  1.1699784820923735e+00 -4.5846770278170662e-05 0.0000000000000000e+00  1.2989326168260054e+00 -5.5169586369019217e-05 0.0000000000000000e+00  1.1694909043341166e+00 -3.4210136105722226e-05 0.0000000000000000e+00  1.1776776416069856e+00 -5.7823470125550908e-03 0.0000000000000000e+00  1.9840151138733855e+00 3.7928071302177381e-02 0.0000000000000000e+00  1.1690958309832502e+00 -7.0516231968593789e-05 0.0000000000000000e+00  1.1690975736847389e+00 -7.2401739027836540e-05 0.0000000000000000e+00  1.1614128234217220e+00 1.5977877370123580e-04 0.0000000000000000e+00  1.6603142492577609e+00 -7.5683933365070830e-02 0.0000000000000000e+00  1.5063482816611442e+00 5.6201584239988563e-02 0.0000000000000000e+00  1.8469956390211875e+00 -2.0084933589703056e-02 0.0000000000000000e+00  1.1249986034082289e+00 -3.4800532590729070e-07 0.0000000000000000e+00  1.1250029368320620e+00 -1.5008398166814665e-07 0.0000000000000000e+00  1.7723676860875686e+00 -1.7644452515015388e-01 0.0000000000000000e+00  1.6206670385370094e+00 9.4596373940113054e-02 0.0000000000000000e+00  8.4855996981355908e-01 1.2982904781790033e-01 0.0000000000000000e+00  1.1701020355687459e+00 -5.6562656799283185e-05 0.0000000000000000e+00  1.3741665585098286e+00 1.7701691613901352e-02 0.0000000000000000e+00  1.1382824163641443e+00 -2.4065569840327964e-05 0.0000000000000000e+00  1.1629600231470520e+00 -7.8129470384924818e-04 0.0000000000000000e+00  1.1660388380345241e+00 -1.4151620991764236e-04 0.0000000000000000e+00  1.1981167616453257e+00 1.7518411498947267e-02 0.0000000000000000e+00  1.5353270290064751e+00 -9.1307252315374621e-02 0.0000000000000000e+00  1.1577935525159673e+00 1.0834418296120625e-05 0.0000000000000000e+00  1.1611950078992943e+00 -1.2076143695861357e-04 0.0000000000000000e+00  1.1710386587120882e+00 -5.5320508438261324e-03 0.0000000000000000e+00  1.1611859600933545e+00 -1.7409734426397408e-04 0.0000000000000000e+00  1.2010030597813928e+00 1.5431030295416358e-02 0.0000000000000000e+00  1.1612473950242006e+00 1.6813888633743389e-05 0.0000000000000000e+00  1.1113649918206960e+00 4.3284608260331288e-04 0.0000000000000000e+00  1.1091524614805190e+00 -3.8550654710198418e-02 0.0000000000000000e+00  -4.7965460158676515e-01 -7.2230736274426194e-02 0.0000000000000000e+00  1.7837796041750404e+00 1.5771471475813043e-01 0.0000000000000000e+00  3.5442034676459633e-01 5.9074502375812313e-02 0.0000000000000000e+00  1.1701671329352228e+00 2.2482064706702828e-05 0.0000000000000000e+00  1.1826696150946550e+00 2.5751764201155863e-01 0.0000000000000000e+00  1.1675749702759810e+00 1.0927507451282926e-04 0.0000000000000000e+00  1.1143558629658188e+00 -8.3044902091253203e-02 0.0000000000000000e+00  1.3858620862476381e+00 2.2292513097223035e-01 0.0000000000000000e+00  1.1696953977262945e+00 -3.0642038543396591e-03 0.0000000000000000e+00  1.4126890734296267e-06 -1.6152149387120194e-07 0.0000000000000000e+00  1.8583044797972981e+00 -7.7381342088597663e-02 0.0000000000000000e+00  1.1427642031921788e+00 -2.5599367200428380e-01 0.0000000000000000e+00  1.5540806755778100e+00 -8.4212288062099711e-02 0.0000000000000000e+00  -1.1995320303168611e-06 1.4643219671106230e-09 0.0000000000000000e+00  1.0845532015228370e+00 7.6110159059795162e-05 0.0000000000000000e+00  -2.5939780872230042e-06 1.7759487601579581e-08 0.0000000000000000e+00  -6.7285670657376426e-06 2.6302302775723756e-07 0.0000000000000000e+00  1.1701965998483446e+00 -2.2364830882574453e-04 0.0000000000000000e+00  8.4213239546512510e-07 1.8510222687745473e-07 0.0000000000000000e+00  1.8666466727667723e+00 8.9548653118367974e-02 0.0000000000000000e+00  1.1105366839931605e+00 -3.8748059422654300e-05 0.0000000000000000e+00  1.7933831043077004e+00 -1.2522081940696339e-01 0.0000000000000000e+00  -3.3239031132343018e-06 3.2990875612973814e-09 0.0000000000000000e+00  1.7984309162102421e+00 -1.5335094069630373e-01 0.0000000000000000e+00  -4.8379101824002279e-06 -2.5988711716314088e-07 0.0000000000000000e+00  1.1224367384103533e+00 -6.4204268949078026e-05 0.0000000000000000e+00  1.5745506967906677e+00 1.3204660182656283e-01 0.0000000000000000e+00  -4.1313639921287708e-06 2.7084311129757000e-08 0.0000000000000000e+00  1.7451297244522295e+00 1.0655660487628335e-01 0.0000000000000000e+00  1.3584831060342233e+00 -3.0434903000410229e-01 0.0000000000000000e+00  1.3395049772350580e+00 -1.2122001126084318e-01 0.0000000000000000e+00  1.3731016922554191e+00 1.2595640005309552e-01 0.0000000000000000e+00  -6.9360054815373256e-07 1.0704974168706274e-07 0.0000000000000000e+00  1.1688542671577054e+00 -6.7794708314586577e-04 0.0000000000000000e+00  1.1095624016538499e+00 5.3778231111565396e-04 0.0000000000000000e+00  9.5666391981258133e-07 -7.7422615567274043e-09 0.0000000000000000e+00  1.1701630213032326e+00 -1.4553720887719495e-05 0.0000000000000000e+00  1.0555965641888085e+00 -1.3061120442226619e-02 0.0000000000000000e+00  1.1409022115353666e+00 -3.9660414021157428e-02 0.0000000000000000e+00  1.1529648955520460e+00 4.7627645005288094e-03 0.0000000000000000e+00  1.1112372669383199e+00 7.8026286973543485e-06 0.0000000000000000e+00  1.9288605914641301e+00 1.9968620099883699e-01 0.0000000000000000e+00  1.2090054073109582e+00 6.1178720608540734e-03 0.0000000000000000e+00  4.1988552669780239e-06 9.7439872681558811e-10 0.0000000000000000e+00  2.7528228708478337e-06 -3.1419574394421760e-07 0.0000000000000000e+00  -7.4831829307022694e-07 -5.1976789679847270e-08 0.0000000000000000e+00  6.5625207241883254e-01 -4.5201206749191948e-08 0.0000000000000000e+00  -1.5818157266105095e-06 3.0672572345796320e-10 0.0000000000000000e+00  1.1025194186251006e+00 -8.1064510320347810e-05 0.0000000000000000e+00  1.6149999448070320e+00 8.1579932312712433e-02 0.0000000000000000e+00  1.1699594023114077e+00 -1.1517096718304467e-05 0.0000000000000000e+00  -4.3765631368708420e-07 2.0058978729890115e-09 0.0000000000000000e+00  -4.5952343213073060e-06 1.9236085521586052e-09 0.0000000000000000e+00  3.1275752408127225e-07 -2.8524758760099615e-09 0.0000000000000000e+00  -1.8694355368118129e-06 4.0156418902732512e-09 0.0000000000000000e+00  -1.2211902004731737e-06 2.1012853029022058e-09 0.0000000000000000e+00  3.0003899419505378e-06 2.6393001660600545e-07 0.0000000000000000e+00  8.0090503766846462e-07 -1.9198736386487281e-07 0.0000000000000000e+00  -2.6866056312236332e-06 2.4010873869004172e-07 0.0000000000000000e+00  -5.2656175376430560e-07 -1.7735088916046884e-07 0.0000000000000000e+00  5.9233500954740825e-07 1.7100607168600943e-07 0.0000000000000000e+00  7.4990672009957892e-07 -6.1632386409880014e-08 0.0000000000000000e+00  -8.2961692977554841e-07 1.4849839009538631e-07 0.0000000000000000e+00  -2.2651893839674955e-06 3.3129035469325921e-07 0.0000000000000000e+00  1.7220082213786200e-06 -1.1090504556630592e-07 0.0000000000000000e+00  -1.3180706746268445e-06 -2.3769053385177658e-07 0.0000000000000000e+00  -3.0934867291745719e-06 -3.5217914142048308e-09 0.0000000000000000e+00  -1.4050507648234609e-06 -2.3385979608885427e-09 0.0000000000000000e+00  -4.6062980302972316e-06 6.4719711912867548e-09 0.0000000000000000e+00  7.2851054635355972e-01 -5.5370432082048483e-02 0.0000000000000000e+00  1.0468388316004782e+00 4.1620694382870255e-04 0.0000000000000000e+00  1.0059882044399067e+00 4.2358287571647384e-02 0.0000000000000000e+00  1.0759687317216429e+00 -2.7769981213186088e-05 0.0000000000000000e+00  1.6629808977018101e+00 -8.2830769014287542e-02 0.0000000000000000e+00  -8.8395443069740828e-03 -1.0563192313874412e-02 0.0000000000000000e+00  3.3317575752280344e-02 -3.8637773682938463e-02 0.0000000000000000e+00  1.1155195357763366e+00 4.1048756594803823e-02 0.0000000000000000e+00  1.0998044955877007e+00 -1.1007231737262732e-04 0.0000000000000000e+00  1.1702324982880259e+00 -8.1437255735857702e-05 0.0000000000000000e+00  1.1702380454869077e+00 -1.6028687692852667e-02 0.0000000000000000e+00  1.0254991671450526e+00 -5.6291088641604583e-04 0.0000000000000000e+00  1.1701217668349271e+00 -6.3397254215108467e-05 0.0000000000000000e+00  1.1701149499267616e+00 -6.0350704464736088e-05 0.0000000000000000e+00  1.1699741603967411e+00 -4.1161387438513165e-05 0.0000000000000000e+00  1.1701560429817208e+00 -3.2123692675303662e-05 0.0000000000000000e+00  1.0437163350959235e+00 -5.8970010322429963e-05 0.0000000000000000e+00  1.0756463131431457e+00 -1.2531946593717712e-04 0.0000000000000000e+00  9.5615677261629295e-01 -1.4229944042121360e-02 0.0000000000000000e+00  1.0190340454546216e+00 7.5191551985579717e-03 0.0000000000000000e+00  2.6808669431886489e-01 8.3157860176374040e-02 0.0000000000000000e+00  1.2320550639757952e+00 -3.0358047177023780e-02 0.0000000000000000e+00  9.5947904424218800e-01 -5.9211689479739309e-02 0.0000000000000000e+00  1.0828991796987324e+00 -5.9610363055549342e-02 0.0000000000000000e+00  1.5594677611743517e+00 -1.6033210030174952e-01 0.0000000000000000e+00  1.1547231630560728e+00 -6.9719774218073997e-05 0.0000000000000000e+00  1.5575207458083955e+00 -2.9535154509660232e-02 0.0000000000000000e+00  1.5030349477939573e+00 3.7055556767376957e-02 0.0000000000000000e+00  1.1702659996718066e+00 -7.4926627175061552e-06 0.0000000000000000e+00  1.4132312930047752e+00 -1.0249716139908711e-01 0.0000000000000000e+00  1.4747893405530228e+00 -1.0961140275323784e-01 0.0000000000000000e+00  1.1647386729374645e+00 -7.1515463647642040e-03 0.0000000000000000e+00  8.3573702968060354e-02 -7.7892773531016909e-02 0.0000000000000000e+00  3.6291453925752837e-01 2.9347574610470398e-02 0.0000000000000000e+00  1.1698689980752763e+00 -3.9895646450368303e-05 0.0000000000000000e+00  1.0826669481872986e+00 -7.8466968286795055e-05 0.0000000000000000e+00  1.1699294940502127e+00 -2.5795462609554386e-04 0.0000000000000000e+00  1.2093349151202766e+00 -1.2708721934948097e-02 0.0000000000000000e+00  8.8277507528825261e-01 9.9490739582494027e-03 0.0000000000000000e+00  1.0597880867923619e+00 1.6079454415298614e-04 0.0000000000000000e+00  1.1700219738490916e+00 6.6037996011430211e-05 0.0000000000000000e+00  9.5745827499146907e-01 9.9050304376538764e-02 0.0000000000000000e+00  1.0492311571251300e+00 1.7226592052840183e-04 0.0000000000000000e+00  6.5624911490226412e-01 5.7848817493455007e-08 0.0000000000000000e+00  1.0980163036362081e+00 1.5488687189880673e-02 0.0000000000000000e+00  1.6001048656729320e+00 3.2303185178690658e-02 0.0000000000000000e+00  1.4892485589833970e+00 -8.6268078386985997e-02 0.0000000000000000e+00  1.1003682276187823e+00 9.4797780366561182e-02 0.0000000000000000e+00  1.0182499149634472e+00 4.8156661472778590e-02 0.0000000000000000e+00  9.5624036254295686e-01 2.7332094791962431e-02 0.0000000000000000e+00  8.8998021174157871e-01 1.0539383218460074e-01 0.0000000000000000e+00  1.1927973700141929e+00 3.8474418174628237e-04 0.0000000000000000e+00  1.6791031897611359e+00 1.6016367968897299e-01 0.0000000000000000e+00  1.1704951041010285e+00 -1.2771199086635465e-03 0.0000000000000000e+00  1.1718700175798595e+00 -2.6549875974591162e-03 0.0000000000000000e+00  1.6249019557927191e+00 -3.0470870928919550e-02 0.0000000000000000e+00  1.4997180546023083e+00 -1.4352806168159635e-01 0.0000000000000000e+00  1.1701712097966970e+00 1.5513052857625769e-05 0.0000000000000000e+00  1.1678759371262153e+00 -2.7484847267132165e-05 0.0000000000000000e+00  1.1701064507471042e+00 -1.0542007328719153e-04 0.0000000000000000e+00  1.0098075403317996e+00 -6.5473024349233152e-06 0.0000000000000000e+00  1.4929667549139449e+00 6.9550006216490975e-02 0.0000000000000000e+00  9.4170473183898773e-01 9.4243926316465457e-02 0.0000000000000000e+00  1.1692723585788332e+00 -3.0874113905259471e-04 0.0000000000000000e+00  1.2233866013752901e+00 1.6344486304965197e-01 0.0000000000000000e+00  1.0490150991219545e+00 1.8299173315162185e-04 0.0000000000000000e+00  1.1380833683674392e+00 -2.2374059721825934e-02 0.0000000000000000e+00  1.3719370421067969e+00 1.0243841946641911e-01 0.0000000000000000e+00  1.2590968985462672e+00 2.6153179122899708e-03 0.0000000000000000e+00  1.1688306494381357e+00 -1.0831782050311170e-04 0.0000000000000000e+00  1.1691256532029572e+00 -1.0153491686984594e-04 0.0000000000000000e+00  1.1702829234998509e+00 -4.3666843746805850e-04 0.0000000000000000e+00  1.1687121128174978e+00 1.9167906304105994e-03 0.0000000000000000e+00  9.0850489095987441e-01 -7.7050841201852400e-05 0.0000000000000000e+00  9.0345354506071307e-01 -4.5360468696182118e-03 0.0000000000000000e+00  8.5271328230715771e-01 -3.7977744589833814e-04 0.0000000000000000e+00  9.4588541979560237e-01 -2.5992092998596596e-02 0.0000000000000000e+00  1.1675226073684539e+00 -9.2050228617559821e-05 0.0000000000000000e+00  9.5186060248554305e-01 -5.6435808900232953e-05 0.0000000000000000e+00  1.1700715713009746e+00 4.6440600536225971e-06 0.0000000000000000e+00  1.1691837485564411e+00 8.8285777340808827e-05 0.0000000000000000e+00  9.9486157455963409e-01 -3.2721721420566764e-02 0.0000000000000000e+00  8.2996661905057112e-01 1.1696260386982920e-02 0.0000000000000000e+00  1.1700926380116938e+00 -4.3755490338784606e-06 0.0000000000000000e+00  1.1684725314906992e+00 -1.2098498050410118e-05 0.0000000000000000e+00  7.1436595713115292e-01 3.0149002198375397e-02 0.0000000000000000e+00  1.2435014922434282e+00 4.6752079356193181e-02 0.0000000000000000e+00  8.6445413052162001e-01 9.3480761639989278e-04 0.0000000000000000e+00  9.9786561567751142e-01 8.5954614852065756e-05 0.0000000000000000e+00  7.3871777846572306e-01 -7.9129898860207215e-02 0.0000000000000000e+00  1.2135642463697394e+00 -2.6130935841509138e-02 0.0000000000000000e+00  8.9990136574496638e-01 1.1979749088628117e-04 0.0000000000000000e+00  1.3579954046560934e+00 -7.7874657407777537e-03 0.0000000000000000e+00  1.5297212894385188e+00 4.8035550621855383e-01 0.0000000000000000e+00  1.0069666220986753e+00 1.8448027187747218e-01 0.0000000000000000e+00  9.6798252373320670e-01 2.7930214342832178e-04 0.0000000000000000e+00  1.3214689076906423e+00 -1.3012942639514699e-01 0.0000000000000000e+00  1.4460937784995695e+00 -5.4564733381311825e-01 0.0000000000000000e+00  9.4490000400918395e-01 -1.4154130002735828e-04 0.0000000000000000e+00  9.8929853610975016e-01 3.2009465790534837e-05 0.0000000000000000e+00  1.2453642584025864e+00 1.7529022554538289e-02 0.0000000000000000e+00  4.4884301632802948e-01 7.3584395043405235e-02 0.0000000000000000e+00  1.4062541897322323e+00 -2.2062536146282118e-07 0.0000000000000000e+00  1.1701034071109995e+00 -2.8896970703339235e-05 0.0000000000000000e+00  9.6851953509035760e-01 -4.3869787496244938e-04 0.0000000000000000e+00  1.4062507420206845e+00 -2.6396042302687597e-07 0.0000000000000000e+00  9.6812098023909632e-01 1.6920061363784341e-04 0.0000000000000000e+00  1.8330699048955572e+00 -3.3582501183340269e-01 0.0000000000000000e+00  1.1690236376352710e+00 -5.1565576953882270e-04 0.0000000000000000e+00  7.1524246903010191e-01 9.9423908997636853e-02 0.0000000000000000e+00  1.1701222706862624e+00 -3.8921188334544963e-05 0.0000000000000000e+00  9.4615366927445244e-01 4.2845616939742667e-05 0.0000000000000000e+00  7.9823075060663506e-01 6.2713256212092834e-04 0.0000000000000000e+00  1.1631724948237319e+00 2.5526273956280463e-04 0.0000000000000000e+00  7.1186908435986807e-01 -3.0084183088379131e-02 0.0000000000000000e+00  9.0723209362524160e-01 -1.3832075719580090e-05 0.0000000000000000e+00  1.323464417