<?xml version="1.0"?>
<VTKFile type="UnstructuredGrid"  version="0.1"  >
<UnstructuredGrid>
<Piece  NumberOfPoints="2426" NumberOfCells="4534">
<Points>
<DataArray  type="Float64"  NumberOfComponents="3"  format="ascii">0 0.41 0  0 0 0  2.2 0 0  2.2 0.41 0  0.2404508497187474 0.2293892626146237 0  0.25 0.2 0  0.2404508497187474 0.1706107373853764 0  0.2154508497187474 0.1524471741852423 0  0.1845491502812526 0.1524471741852423 0  0.1595491502812526 0.1706107373853764 0  0.15 0.2 0  0.1595491502812526 0.2293892626146237 0  0.1845491502812527 0.2475528258147577 0  0.2154508497187474 0.2475528258147577 0  0.5404508497187474 0.2293892626146237 0  0.55 0.2 0  0.5404508497187474 0.1706107373853764 0  0.5154508497187473 0.1524471741852423 0  0.4845491502812526 0.1524471741852423 0  0.4595491502812526 0.1706107373853764 0  0.45 0.2 0  0.4595491502812526 0.2293892626146237 0  0.4845491502812526 0.2475528258147577 0  0.5154508497187473 0.2475528258147577 0  1.1 0 0  0 0.205 0  1.1 0.41 0  0.55 0 0  0.55 0.41 0  0.275 0 0  0.275 0.41 0  1.65 0.41 0  1.65 0 0  1.375 0 0  1.375 0.41 0  1.925 0 0  1.925 0.41 0  0.8250000000000001 0.41 0  0.8250000000000001 0 0  1.5125 0.205 0  1.7875 0.205 0  0.9625000000000001 0.205 0  1.2375 0.205 0  2.2 0.205 0  0.7560964076246335 0.2151713709677419 0  1.99375 0.2152743902439024 0  2.0625 0 0  0.6875 0 0  2.0625 0.41 0  2.2 0.3075 0  0.6875 0.41 0  1.7875 0.41 0  1.375 0.1486128048780488 0  1.5125 0 0  1.7875 0 0  1.5125 0.41 0  0.9625000000000001 0 0  0.9625000000000001 0.41 0  0.4125 0 0  0.1375 0 0  0.1375 0.41 0  0.4125 0.41 0  1.2375 0 0  1.1 0.1486128048780487 0  1.2375 0.41 0  1.65 0.1486128048780487 0  1.126715909090909 0.2793064024390244 0  1.676715909090909 0.2793064024390244 0  1.348284090909091 0.2793064024390244 0  0.34375 0.3032389320646208 0  1.894702181800738 0.1282910975492754 0  2.092797818199262 0.1282910975492754 0  1.85625 0.3075 0  0.8630851210521902 0.286932093388664 0  0.89375 0.1025 0  0.35 0.1090282786671641 0  0 0.3075 0  0 0.1025 0  0.6526217841291382 0.288229645480046 0  0.7562500000000001 0.09660248895515888 0  0.6568633732316684 0.1557582854763441 0  2.099172119769978 0.25625 0  1.002356446954348 0.1010393851523063 0  1.99375 0.08395950269330846 0  1.459960956013612 0.3075 0  1.569025960719943 0.2986889805672169 0  1.03125 0.3278689922742084 0  0.75625 0.3247156761655783 0  1.959375 0.3126371951219512 0  1.749222215368287 0.1025 0  1.275777784631713 0.1025 0  2.2 0.1025 0  1.225938124459196 0.3075 0  1.550777784631713 0.1025 0  1.44375 0.07430640243902442 0  1.16875 0.07430640243902437 0  0.3528655045338512 0.2063263890916129 0  0.5890337614812103 0.08775733857679162 0  0.8504912436891263 0.190072835691683 0  1.899250267340833 0.2229966846119207 0  0.1020898364287272 0.3140258291809757 0  1.766482954545455 0.2934032012195123 0  1.051658316544432 0.2265720188842194 0  0.2 0.3400647632937836 0  1.421109702350723 0.2261157654379721 0  0.4812500000000001 0.41 0  0.4324401666997539 0.3216425986889796 0  0.098916018031319 0.09171660955420841 0  0.9508742791313441 0.2921736960864468 0  2.13125 0 0  2.118919042110979 0.3422084711244843 0  1.30625 0.41 0  0.20625 0 0  1.597888256393107 0.2173787389261347 0  0.4812500000000001 0 0  0.4324082967851086 0.08384041677422771 0  1.829299675393195 0.07400700849299596 0  0.568219932524165 0.3212274660843853 0  1.71875 0.41 0  0.268005226542646 0.08512186835670006 0  1.16875 0.41 0  2.038220665644273 0.332420740103091 0  0.6678017527842831 0.07701763866051195 0  0.89375 0.41 0  0.5111435174287687 0.07335351331957608 0  0.176193934632343 0.0734896648625108 0  0.07390688010811153 0.1697064032433452 0  0.05452951551825875 0.25625 0  0.61875 0.41 0  1.452769549894695 0.1548122580621249 0  1.369219062229598 0.07430640243902442 0  1.30625 0 0  1.720943423819132 0.1714577452753128 0  1.157188124459196 0.205 0  1.094219062229598 0.07430640243902437 0  1.304056576180868 0.1714577452753128 0  1.67579304192913 0.07430640243902437 0  0.2672907219039591 0.3037570723459566 0  1.209670467133757 0.1362100266964769 0  1.58125 0 0  1.03125 0 0  0.06875000000000001 0.41 0  0 0.35875 0  1.58125 0.41 0  1.631724228912893 0.3381867502687533 0  0.8240147050827157 0.1225233169495944 0  1.825608881788174 0.14499488549201 0  1.85625 0 0  1.44375 0 0  1.44375 0.41 0  1.85625 0.41 0  2.13125 0.41 0  0.7562500000000001 0.41 0  0.7562500000000001 0 0  0.89375 0 0  0.34375 0 0  0.34375 0.41 0  0.20625 0.41 0  0.06875000000000001 0 0  1.16875 0 0  1.03125 0.41 0  0.61875 0 0  1.71875 0 0  1.99375 0 0  1.99375 0.41 0  0.3972301426712326 0.2593842555611471 0  1.340625 0.3489494290853124 0  1.134375 0.3489494290853123 0  1.700180620188976 0.3438659752031281 0  0.5003922072260507 0.341765274319271 0  0.6212513815748759 0.2209216137134851 0  0.6885607720119526 0.215393731583638 0  1.033412357328477 0.1612902025713047 0  2.135782184673599 0.07126652247502523 0  1.668441847249787 0.2129203728327609 0  1.295782514339747 0.2378437748815763 0  1.409375 0.3520314716057996 0  2.129248544730567 0.1906135162504124 0  2.060771381434487 0.1989445750470348 0  2.013252586573865 0.1496169464686054 0  1.942766402200229 0.1734448904596831 0  1.895522487186454 0.06076163953489683 0  2.069553871656643 0.06605731020975725 0  0.9281250000000001 0.3539050257418612 0  1.274680914880868 0.3520219391081363 0  0.3030138498135347 0.2488370856812789 0  0.8223773249563684 0.341761430177996 0  0.9018164060227267 0.2326477848736739 0  0.8143027982392851 0.2440265179987191 0  0.7225087161029304 0.2699907246386231 0  1.614713220494657 0.09473434380863296 0  0.378125 0.3566194660323104 0  0.309375 0.3566194660323104 0  1.72990325744076 0.2380068107952482 0  0.6915936999299305 0.3429472631234433 0  0.6268087624932918 0.3466455500035671 0  1.356580098625191 0.2120393231351682 0  0.3060160055995138 0.1590148921620778 0  0.3954648733249218 0.156380553890791 0  2.034370752044885 0.2668681600792073 0  1.51768709249349 0.3426260931494756 0  1.561883724969884 0.1650446847858835 0  1.197344062229598 0.2523725417393646 0  0.9281250000000001 0.05124999999999999 0  1.804085235518364 0.3468178408964637 0  1.817887819205233 0.2589243285818559 0  0.9107805776841645 0.1653834539923287 0  1.905897727272727 0.3485060975609756 0  0 0.05125 0  0.844212276491354 0.0614201194265309 0  0.378125 0.05244637078450034 0  1.008571329007178 0.2705955969954818 0  0.7724048032149464 0.1559079561351474 0  0.7203054377831548 0.04941826955193545 0  1.192836486056382 0.3562350748565544 0  0.5967108020713719 0.1479294686523888 0  1.28257088594801 0.2944411014911587 0  0.7041890234548132 0.1222025174424443 0  1.474860187679412 0.2504218616229368 0  1.406767003493824 0.2829282258560709 0  0.3201325899091991 0.05890121548989159 0  0.5979220912872258 0.2727591995766724 0  1.845656689180403 0.1998310418452388 0  2.144958525570388 0.2909790873294231 0  2.2 0.15375 0  1.57794966442982 0.3540357145964566 0  0.9483181579620558 0.1214693369582054 0  0.0496154796471391 0.333125 0  1.508991196088596 0.1421783375065625 0  0.09776612425612034 0.2204896805326566 0  1.50436820029908 0.06143401634903343 0  1.223857000523521 0.0823554862453532 0  0.2531953886959507 0.3582003209055908 0  1.153316824384777 0.1289850171317837 0  2.148922302309752 0.1258841779285271 0  1.621993280276081 0.2841214267927899 0  1.550118654119087 0.2461998729100966 0  1.327182649291491 0.1216967252533594 0  1.753125 0.04556020050186112 0  1.271875 0.04556020050186116 0  0.9824282234771738 0.05051969257615314 0  1.039510847866381 0.05683351822678641 0  1.94956388244759 0.1180512551534177 0  1.949997712993411 0.04965831614304109 0  1.771961817615021 0.1530278789497521 0  1.909246823951428 0.2812757146784527 0  1.101974016627944 0.2038045618205013 0  0.7906250000000001 0.0444674049654372 0  1.948575539857022 0.2445328248721197 0  1.697271520964565 0.1233917627620729 0  1.065625 0.3689344961371042 0  1.085849084308977 0.3170853572226867 0  0.9840604787624379 0.3582077516409966 0  1.577403511714593 0.05463601888079143 0  0.05622663515370135 0.05493816910862376 0  0.8762396958822678 0.3392249777398821 0  1.751571320346033 0.3651102912045228 0  1.055327852410105 0.111864799513911 0  0.1583785085108421 0.2994699345738728 0  0.1455283439499995 0.3542795598723423 0  2.2 0.35875 0  0.225705107073232 0.05084786997482401 0  0.1455852234589313 0.1166494778469164 0  1.466879772203159 0.3611261772912453 0  1.990280163552011 0.3564754268533217 0  1.17471064520912 0.2990917256188288 0  0.7221925551074015 0.1739659241003985 0  0 0.25625 0  2.2 0.25625 0  2.2 0.05125 0  0 0.15375 0  1.853978576207987 0.35875 0  0.21965520498276 0.1015543880164422 0  1.515638456102889 0.2882700110184686 0  0.09048297387599738 0.3637717362208066 0  2.150453692751374 0.2387066338105111 0  1.323782677156475 0.04897634338873398 0  1.409375 0.03715320121951221 0  1.406484531114799 0.1087852750766809 0  1.134375 0.03715320121951218 0  1.627401732573545 0.04552157221025036 0  0.446875 0.3713289093361426 0  2.045405893604797 0.1105340662939892 0  1.255408269734577 0.1577307500159216 0  2.028125 0.03707597992059326 0  0.04420832937638274 0.128125 0  0.5817551710628505 0.3702615006034757 0  0.1197849154434487 0.2663398672460083 0  1.248258025468107 0.2565907092181813 0  0.1300647302703173 0.0508462728378621 0  0.7738123537510222 0.2761231499240648 0  1.203125 0.0366132337404304 0  0.5444207041612499 0.111205399508622 0  0.8016457771828226 0.1964238426015905 0  2.072662025974815 0.2975086504196739 0  0.4019040438866802 0.2103993403217561 0  0.4677372330974851 0.04827477407630658 0  0.8677218578847617 0.1432970430140788 0  1.058011122005847 0.2758866204059919 0  0.4429405887974043 0.2746184809910084 0  0.5843750000000001 0.03726989681835222 0  0.6318596133730142 0.1128692182767254 0  0.4862628454464408 0.2957029785303028 0  0.7805186758662764 0.3673578380827891 0  1.887722846421017 0.1760882698830035 0  0.3498893058880703 0.256189258793856 0  1.472640588990488 0.1118278026240017 0  1.865937103925594 0.2604137786483804 0
[...]
<PointData  Vectors="f_37"> 
<DataArray  type="Float64"  Name="f_37"  NumberOfComponents="3" format="ascii">-6.1160185328360997e-07 2.0518260876179764e-08 0.0000000000000000e+00  3.7296424893779293e-07 -2.9650695295624753e-08 0.0000000000000000e+00  -3.6609127540829739e-07 -4.3888638156011020e-09 0.0000000000000000e+00  1.0188979232508368e-06 -4.0904001834067701e-09 0.0000000000000000e+00  -9.9048833532088299e-07 1.1809375515058010e-07 0.0000000000000000e+00  -7.7568436877028423e-07 1.2927486463875925e-07 0.0000000000000000e+00  -1.6606755850316289e-06 3.0946625009102548e-07 0.0000000000000000e+00  1.1799219485315732e-06 2.7574804533370480e-07 0.0000000000000000e+00  2.8803171245305942e-06 -4.7951215305840521e-07 0.0000000000000000e+00  -9.5758554730846667e-07 7.6438712009336475e-08 0.0000000000000000e+00  -1.7359852486146976e-06 1.0960336198930237e-06 0.0000000000000000e+00  6.7959891276474422e-07 2.2293359705865650e-06 0.0000000000000000e+00  -3.7449240004220064e-06 -1.2897700852128108e-06 0.0000000000000000e+00  -3.5455747763980423e-06 -8.6117613203584404e-07 0.0000000000000000e+00  -1.9491857318788627e-06 -2.0151075074021058e-08 0.0000000000000000e+00  -1.4537036451405919e-06 1.1548445920879833e-07 0.0000000000000000e+00  -3.8911006332832317e-06 -2.6837677930599784e-07 0.0000000000000000e+00  -3.0272658383118180e-06 -1.0600645883882175e-07 0.0000000000000000e+00  -1.8286383612085762e-06 -8.2033858993671311e-08 0.0000000000000000e+00  -1.4808930985134432e-06 -2.7181380252122964e-07 0.0000000000000000e+00  -1.0672403631867688e-06 -7.8882928559944797e-08 0.0000000000000000e+00  -1.1262768062951936e-06 -5.3396511476585984e-08 0.0000000000000000e+00  -6.6877849726206488e-07 1.9676191537964695e-07 0.0000000000000000e+00  -3.6508543241588618e-07 1.1604936142785852e-07 0.0000000000000000e+00  -1.5842454882046267e-06 1.1839736956608971e-07 0.0000000000000000e+00  1.5000025237939245e+00 1.4248947565652841e-08 0.0000000000000000e+00  -2.5128851900291083e-07 1.2873771594033061e-07 0.0000000000000000e+00  -2.2249163313223110e-06 -7.2930917951917857e-08 0.0000000000000000e+00  -9.7340291923262486e-07 5.8872204918066558e-08 0.0000000000000000e+00  -2.6342047377136624e-06 9.1620032288057303e-08 0.0000000000000000e+00  -1.0739342537310822e-06 -2.6161780989591255e-08 0.0000000000000000e+00  -5.5113379590097115e-07 -1.0201402894318645e-07 0.0000000000000000e+00  3.1697766437610102e-07 -6.4813832992306774e-08 0.0000000000000000e+00  1.8446114253701927e-06 9.9746332204264217e-08 0.0000000000000000e+00  7.3081772686756416e-07 1.0114056110315894e-07 0.0000000000000000e+00  3.1683633977832913e-07 1.9228744715279054e-09 0.0000000000000000e+00  2.8738196459977323e-08 2.3899389302394755e-08 0.0000000000000000e+00  -3.1670488277053952e-07 8.3367692031624005e-09 0.0000000000000000e+00  -2.5603431242716655e-06 -1.2093093778484196e-07 0.0000000000000000e+00  1.0460893413027881e+00 -2.7494281586356376e-03 0.0000000000000000e+00  1.1158337046163063e+00 2.3775200661133627e-02 0.0000000000000000e+00  6.0814715294916610e-01 6.4247172662233922e-03 0.0000000000000000e+00  9.0243013487739188e-01 -2.1398426219314821e-02 0.0000000000000000e+00  1.2068281844430144e+00 2.1425187453115051e-02 0.0000000000000000e+00  2.2311289396256712e-01 -4.9672272475365389e-02 0.0000000000000000e+00  1.2101425351277808e+00 -2.2281885458718155e-02 0.0000000000000000e+00  -1.6753004536527784e-06 -1.1959863582105386e-08 0.0000000000000000e+00  -1.6277927121825878e-06 -4.0768669467683157e-08 0.0000000000000000e+00  -9.8284563216318055e-07 -4.4203466522847536e-08 0.0000000000000000e+00  1.2776668595938427e+00 -1.6445430468301884e-03 0.0000000000000000e+00  -2.5541447169757631e-07 6.2615376048461424e-08 0.0000000000000000e+00  -9.8955824470498929e-07 7.2675778269114792e-08 0.0000000000000000e+00  1.3633438089002001e+00 1.8957844685698996e-02 0.0000000000000000e+00  1.2651658250600786e-06 2.3235251010422664e-08 0.0000000000000000e+00  -4.2823376944535847e-07 6.2339770253097601e-08 0.0000000000000000e+00  1.5333553307931650e-06 5.6553242006035217e-08 0.0000000000000000e+00  -5.4037307827072942e-07 -2.7500975132862019e-08 0.0000000000000000e+00  -8.4035684447239978e-07 -2.6261081805235711e-08 0.0000000000000000e+00  -7.1701531064186709e-07 -2.4444535813908254e-08 0.0000000000000000e+00  3.0230963268034687e-07 6.5027283308841538e-08 0.0000000000000000e+00  6.0484309722842580e-07 1.3418912252191444e-07 0.0000000000000000e+00  -2.7493377808992004e-06 1.1003528073896761e-07 0.0000000000000000e+00  1.3218245580072236e-06 -1.4900922250566977e-07 0.0000000000000000e+00  1.3640551351320482e+00 1.7792506988677268e-02 0.0000000000000000e+00  -1.0524274089572884e-06 -1.9705017596953764e-07 0.0000000000000000e+00  1.3343359601469107e+00 3.5096317458567696e-03 0.0000000000000000e+00  1.5816545160697020e+00 -2.6468316838687188e-02 0.0000000000000000e+00  1.4246057950202435e+00 2.8661078173629218e-03 0.0000000000000000e+00  1.5114348392641546e+00 -2.5657711593698174e-03 0.0000000000000000e+00  1.9608309949505363e+00 2.9819906812785214e-02 0.0000000000000000e+00  1.3324674172301796e+00 5.1938655102678555e-03 0.0000000000000000e+00  1.3455695237353364e+00 8.2306381978141056e-03 0.0000000000000000e+00  1.3160568031114535e+00 -5.0713042550064738e-03 0.0000000000000000e+00  1.6606809415722510e+00 -1.0108241955646054e-01 0.0000000000000000e+00  1.5566181098301684e+00 7.9369479005348964e-02 0.0000000000000000e+00  1.8646472657990929e+00 9.7262212380567308e-03 0.0000000000000000e+00  1.1249986006415094e+00 -1.7299466501594804e-07 0.0000000000000000e+00  1.1250027131841926e+00 1.5087017428832125e-08 0.0000000000000000e+00  1.7712743361966821e+00 -1.6509095481040506e-01 0.0000000000000000e+00  1.6469864079203209e+00 1.3771336930368649e-01 0.0000000000000000e+00  7.3738756379100767e-01 1.0568986227269114e-01 0.0000000000000000e+00  1.3394633806327554e+00 -6.2330790520127317e-03 0.0000000000000000e+00  1.4741740098161937e+00 2.8838811610320064e-02 0.0000000000000000e+00  1.1184813770622104e+00 8.4969333955511222e-04 0.0000000000000000e+00  1.3715251615346182e+00 -6.4318022134090928e-03 0.0000000000000000e+00  1.3988179410446342e+00 3.6017260686300322e-03 0.0000000000000000e+00  1.2460396931532836e+00 -2.2512691996784646e-02 0.0000000000000000e+00  1.5484396297562615e+00 -1.2170839535287555e-01 0.0000000000000000e+00  1.2490522595729714e+00 2.3954710743613519e-03 0.0000000000000000e+00  1.2914493308522772e+00 1.6323063675150547e-03 0.0000000000000000e+00  1.3985512160134577e+00 6.7980486735270884e-03 0.0000000000000000e+00  1.2305729372514125e+00 2.8041305310251858e-03 0.0000000000000000e+00  1.4071513841933085e+00 4.1652660022560980e-03 0.0000000000000000e+00  1.3336596622376673e+00 2.4808605285763980e-03 0.0000000000000000e+00  1.0566715724986178e+00 -6.4133337347248923e-03 0.0000000000000000e+00  1.0947064383791230e+00 1.4270087358671422e-03 0.0000000000000000e+00  -3.3034150048189731e-01 -1.4949001787220209e-02 0.0000000000000000e+00  1.7791559482669494e+00 1.2342754525500928e-01 0.0000000000000000e+00  4.2154885126993985e-01 2.2903496665053320e-02 0.0000000000000000e+00  1.2176418366306345e+00 6.2247505074522402e-03 0.0000000000000000e+00  1.1818555576265342e+00 2.5546468993169835e-01 0.0000000000000000e+00  1.4000026443645561e+00 -1.6387654698574211e-03 0.0000000000000000e+00  1.0090107955316396e+00 -2.5955370761742161e-02 0.0000000000000000e+00  1.3810558202642533e+00 2.1763564448535186e-01 0.0000000000000000e+00  1.1218355876384323e+00 1.1251820561466485e-02 0.0000000000000000e+00  8.2799380557943388e-07 -1.1259808069111722e-08 0.0000000000000000e+00  1.8391718619971553e+00 -6.1103579258409327e-02 0.0000000000000000e+00  1.1435677804619349e+00 -2.5637392024855743e-01 0.0000000000000000e+00  1.6195334153314245e+00 -5.8949980976750770e-02 0.0000000000000000e+00  -7.6638625013411059e-07 -1.8054436934331363e-08 0.0000000000000000e+00  9.5620746170395732e-01 9.0340917333903582e-04 0.0000000000000000e+00  -2.8618054114786461e-06 -1.2046742397481103e-07 0.0000000000000000e+00  -6.9057678660777383e-06 2.7112658541944015e-07 0.0000000000000000e+00  1.1301762955578285e+00 -2.9396296286508031e-02 0.0000000000000000e+00  1.0007696291231244e-06 -2.6121885300818914e-08 0.0000000000000000e+00  1.8259210111351922e+00 7.8267102772866734e-02 0.0000000000000000e+00  1.0241795010140067e+00 -1.7499475801591292e-03 0.0000000000000000e+00  1.7925589444730912e+00 -1.1339933603876506e-01 0.0000000000000000e+00  -2.8748892627232920e-06 -4.1435901982299529e-08 0.0000000000000000e+00  1.7978687936722149e+00 -1.4129683276839988e-01 0.0000000000000000e+00  -1.5000532220311159e-07 -3.1359909319611781e-08 0.0000000000000000e+00  1.0633623753327606e+00 3.5752383750040167e-03 0.0000000000000000e+00  1.6016637586713998e+00 1.2850471402482266e-01 0.0000000000000000e+00  -2.7662971765505342e-06 -3.3141532799612486e-08 0.0000000000000000e+00  1.7220851491796345e+00 7.4856595067567838e-02 0.0000000000000000e+00  1.3596376531574186e+00 -3.0228740083467109e-01 0.0000000000000000e+00  1.3399812517010781e+00 -1.2282710395947034e-01 0.0000000000000000e+00  1.3729747880388883e+00 1.2467041895269931e-01 0.0000000000000000e+00  -8.1290772581424118e-08 2.1700990017831983e-08 0.0000000000000000e+00  1.2704621542702399e+00 1.5428322697559295e-02 0.0000000000000000e+00  1.0571825399080581e+00 -8.5717838548700371e-03 0.0000000000000000e+00  1.5293230068696412e-06 -2.3108791260836356e-08 0.0000000000000000e+00  1.2218614890860391e+00 1.0216610567573562e-02 0.0000000000000000e+00  8.5347756067930569e-01 -2.4763328321015327e-02 0.0000000000000000e+00  1.1130310654797504e+00 1.3913085149097129e-03 0.0000000000000000e+00  1.1529117950083920e+00 1.8362563971121900e-02 0.0000000000000000e+00  1.0355654300682227e+00 -1.4723570069360445e-03 0.0000000000000000e+00  1.9203116011057251e+00 1.8459277987170139e-01 0.0000000000000000e+00  1.4757545783965578e+00 1.5525548035494666e-02 0.0000000000000000e+00  2.5342670803997170e-06 -3.7451705687267511e-08 0.0000000000000000e+00  -2.5185058471954938e-07 7.5654778176649979e-08 0.0000000000000000e+00  -7.9960809476271915e-07 -5.6298795658706941e-08 0.0000000000000000e+00  6.5625203842386792e-01 1.5963702378716505e-08 0.0000000000000000e+00  -6.1894419712340956e-07 -5.9460793124173484e-08 0.0000000000000000e+00  1.0090061368341785e+00 7.8606907764341809e-03 0.0000000000000000e+00  1.6294516667062744e+00 1.2616019298688455e-01 0.0000000000000000e+00  1.3317842477395876e+00 1.5267606386488932e-02 0.0000000000000000e+00  -5.6786564853405682e-07 1.1318746477701914e-08 0.0000000000000000e+00  -3.8753394520929572e-06 1.3322614557304857e-07 0.0000000000000000e+00  5.6939773433448954e-07 1.0487260214391701e-07 0.0000000000000000e+00  -7.8165266094938193e-07 7.0867374694946609e-08 0.0000000000000000e+00  -1.0534380952095955e-06 -1.7540878343398723e-09 0.0000000000000000e+00  -1.6748954106897956e-07 4.9290044506012759e-08 0.0000000000000000e+00  -2.7174573392048483e-06 -1.4656376127084984e-07 0.0000000000000000e+00  -3.4238853076135218e-07 -1.0487316908972934e-07 0.0000000000000000e+00  2.0801417775757571e-07 -4.1840393069348446e-09 0.0000000000000000e+00  3.5665133193962727e-07 1.5715541886224218e-08 0.0000000000000000e+00  1.1688340049875242e-06 -8.6557960909095594e-08 0.0000000000000000e+00  -8.2401235659822380e-07 1.4457540258810838e-07 0.0000000000000000e+00  7.5147285773922813e-09 -8.5300377835121825e-09 0.0000000000000000e+00  -1.1164063056532720e-06 1.6324886732252879e-07 0.0000000000000000e+00  -2.7410762272975400e-06 -1.6967376393500976e-07 0.0000000000000000e+00  -2.3175583714939230e-06 2.9009981337455951e-08 0.0000000000000000e+00  -1.2711254903880617e-06 1.4117733440138306e-08 0.0000000000000000e+00  -2.5665763245485540e-06 -6.0235606619682777e-08 0.0000000000000000e+00  7.2430390485618035e-01 -4.3469169527329210e-02 0.0000000000000000e+00  8.6529059104783468e-01 2.9735242512110198e-03 0.0000000000000000e+00  8.6921715624203688e-01 1.9677140499906945e-03 0.0000000000000000e+00  9.4067542453019903e-01 2.9370313313879129e-03 0.0000000000000000e+00  1.6559086856231084e+00 -6.9646954980502898e-02 0.0000000000000000e+00  6.7626414792537528e-03 -9.1290756247504445e-03 0.0000000000000000e+00  4.0847641836377256e-02 -3.3899840014041477e-02 0.0000000000000000e+00  1.1812090726948845e+00 3.6783507801256846e-02 0.0000000000000000e+00  9.7561923553408381e-01 2.1190029579971109e-04 0.0000000000000000e+00  1.1013469509158000e+00 -2.3942333539464972e-02 0.0000000000000000e+00  1.1957367516933672e+00 -8.3634758213197730e-03 0.0000000000000000e+00  8.1477835853604663e-01 1.3807427478597194e-03 0.0000000000000000e+00  1.2085648349063183e+00 -8.4626820674880878e-04 0.0000000000000000e+00  1.1784279401968354e+00 -2.5078352771465032e-02 0.0000000000000000e+00  1.2880560108701595e+00 -6.1983670297265404e-03 0.0000000000000000e+00  1.1813813347366589e+00 2.7617965901983281e-03 0.0000000000000000e+00  8.6650596106985367e-01 -8.8052137525012849e-04 0.0000000000000000e+00  9.2219849633992890e-01 8.2405463547169150e-05 0.0000000000000000e+00  8.8248815876805375e-01 -2.1793833372920037e-02 0.0000000000000000e+00  8.1777436963780048e-01 6.6650717889741255e-03 0.0000000000000000e+00  2.3173104935586397e-01 5.1434253147614600e-02 0.0000000000000000e+00  1.2281170951042679e+00 -6.9447260119583132e-02 0.0000000000000000e+00  9.3911498840597252e-01 -5.6710595667565221e-02 0.0000000000000000e+00  1.0896981700947306e+00 -1.1153498043618731e-01 0.0000000000000000e+00  1.5549537594751000e+00 -1.6931313436569176e-01 0.0000000000000000e+00  1.2670725280804389e+00 3.9378920745227301e-03 0.0000000000000000e+00  1.5337865211995807e+00 -2.6279240753422445e-02 0.0000000000000000e+00  1.4842901156487827e+00 3.2117152130969655e-02 0.0000000000000000e+00  1.2246055516036194e+00 -2.2160033556118995e-03 0.0000000000000000e+00  1.4292833459991152e+00 -1.0794173133364125e-01 0.0000000000000000e+00  1.4823220426799097e+00 -1.0212804598377134e-01 0.0000000000000000e+00  9.8089177353507417e-01 1.6137958871959877e-02 0.0000000000000000e+00  7.9989567290975352e-02 -5.4701960206798385e-02 0.0000000000000000e+00  2.8520433773120230e-01 2.3851241823827484e-02 0.0000000000000000e+00  1.3878518811913181e+00 -6.6274154242175207e-03 0.0000000000000000e+00  9.4329049766269746e-01 6.0863560390077877e-03 0.0000000000000000e+00  1.1739520325316612e+00 -5.5555936801071661e-03 0.0000000000000000e+00  1.4047044037812813e+00 -2.3566823209688760e-02 0.0000000000000000e+00  7.8686645192345139e-01 1.7183831109741969e-02 0.0000000000000000e+00  8.9771258434331047e-01 3.4029116073920119e-04 0.0000000000000000e+00  1.3728951233081790e+00 2.4238526735172864e-03 0.0000000000000000e+00  1.0417958817749715e+00 7.0331662215312410e-02 0.0000000000000000e+00  8.7252180250787248e-01 2.6653869740607687e-03 0.0000000000000000e+00  6.5624905614741724e-01 8.6206411244049667e-08 0.0000000000000000e+00  1.0815745177162648e+00 5.3963011324014425e-02 0.0000000000000000e+00  1.5678583382323008e+00 3.7279334276993710e-02 0.0000000000000000e+00  1.5937240041485081e+00 -4.9409479234788715e-02 0.0000000000000000e+00  1.0397261094029897e+00 1.1854660817103545e-01 0.0000000000000000e+00  1.0724818649686605e+00 7.0535882933483215e-02 0.0000000000000000e+00  7.4682040709078934e-01 6.8629853907142850e-03 0.0000000000000000e+00  8.0513818396169112e-01 8.8637994233556311e-02 0.0000000000000000e+00  1.4861730720337216e+00 3.6151082479816792e-03 0.0000000000000000e+00  1.6520395723759955e+00 1.6723844166527677e-01 0.0000000000000000e+00  1.3882532681245652e+00 -1.4134492002913628e-02 0.0000000000000000e+00  1.5118809005839040e+00 -9.8765331123540946e-03 0.0000000000000000e+00  1.6077360945559078e+00 -1.7196848499150083e-02 0.0000000000000000e+00  1.4996566230702062e+00 -1.3667490966892154e-01 0.0000000000000000e+00  1.1297739746599107e+00 3.0354206867470909e-02 0.0000000000000000e+00  1.3505973384099870e+00 5.9059369158216690e-04 0.0000000000000000e+00  1.3152228270331803e+00 1.7098394942466864e-02 0.0000000000000000e+00  7.9186355551332566e-01 7.1898340871997795e-03 0.0000000000000000e+00  1.5843006001208610e+00 6.3382873244547416e-02 0.0000000000000000e+00  9.4149739144130773e-01 9.3608352210342874e-02 0.0000000000000000e+00  1.3386250548319343e+00 4.2587128323757946e-03 0.0000000000000000e+00  1.2233602528056966e+00 1.6056560917168466e-01 0.0000000000000000e+00  8.8259330759077992e-01 -2.5399021455873600e-03 0.0000000000000000e+00  1.1955668542797298e+00 3.0721338880304915e-03 0.0000000000000000e+00  1.3609761199941202e+00 9.6656560780371992e-02 0.0000000000000000e+00  1.5078584434049609e+00 1.2582813214783162e-02 0.0000000000000000e+00  1.3353974922242966e+00 9.9421420466522335e-03 0.0000000000000000e+00  1.4386244610088175e+00 3.4623435967014696e-03 0.0000000000000000e+00  1.3596486699424470e+00 -2.0536409517669212e-02 0.0000000000000000e+00  1.4708016593268216e+00 9.8492431538380904e-03 0.0000000000000000e+00  6.6326873551283738e-01 -2.2474164671509975e-03 0.0000000000000000e+00  6.2833441148152502e-01 -4.0760292525495517e-03 0.0000000000000000e+00  7.3943068417870184e-01 5.8634272988483975e-03 0.0000000000000000e+00  8.3444515960723398e-01 4.3482952024048027e-04 0.0000000000000000e+00  1.3197854206760045e+00 1.2994759896691908e-03 0.0000000000000000e+00  7.2298161422362506e-01 -9.5318167847868686e-04 0.0000000000000000e+00  1.3258238679869840e+00 1.9057242814234047e-02 0.0000000000000000e+00  1.4285526476261581e+00 -1.0012905494790208e-02 0.0000000000000000e+00  7.9864872800904385e-01 -1.1418246530888727e-02 0.0000000000000000e+00  8.2224844598282443e-01 4.2399659365532028e-02 0.0000000000000000e+00  1.3494050212892097e+00 -1.4972584076317534e-02 0.0000000000000000e+00  1.3986563722214693e+00 1.0632500927954992e-02 0.0000000000000000e+00  5.4492835047152455e-01 -7.7220493677363357e-04 0.0000000000000000e+00  1.3580625800963779e+00 -1.7979858732757811e-02 0.0000000000000000e+00  7.6122662367955607e-01 -1.0865835812703081e-02 0.0000000000000000e+00  7.8487666743238149e-01 -1.3866602156571942e-03 0.0000000000000000e+00  7.3881276441704391e-01 -7.9182358568002098e-02 0.0000000000000000e+00  1.1986135684094592e+00 -5.1481981813424095e-02 0.0000000000000000e+00  6.5201484527377251e-01 1.0199147798146499e-03 0.0000000000000000e+00  1.5183908290171062e+00 1.7478377307600091e-02 0.0000000000000000e+00  1.5283772783129292e+00 4.7609167179315676e-01 0.0000000000000000e+00  1.0046069541192175e+00 1.8218174336843107e-01 0.0000000000000000e+00  7.5162795790298953e-01 7.2264517017736336e-04 0.0000000000000000e+00  1.3189533160937241e+00 -1.2561994861328882e-01 0.0000000000000000e+00  1.4489177178918304e+00 -5.4609314129461706e-01 0.0000000000000000e+00  6.8061901162949556e-01 2.9448178114372761e-03 0.0000000000000000e+00  7.7623685283597554e-01 3.0179268107727274e-03 0.0000000000000000e+00  1.4881784673672520e+00 -6.4579867830375512e-03 0.0000000000000000e+00  3.7922848269017884e-01 7.0252158681603408e-02 0.0000000000000000e+00  1.4062539972782169e+00 1.2212324758257614e-07 0.0000000000000000e+00  1.3361378468596528e+00 7.0386865744383447e-03 0.0000000000000000e+00  7.4180187015876475e-01 -3.3948645992311002e-04 0.0000000000000000e+00  1.4062505965525580e+00 3.5657695470808433e-08 0.0000000000000000e+00  7.3923434164847923e-01 1.3596558473880356e-03 0.0000000000000000e+00  1.8372706730267414e+00 -3.2978097750751739e-01 0.0000000000000000e+00  1.4732541853663403e+00 -8.3555218038156367e-03 0.0000000000000000e+00  7.1441791106122698e-01 9.8563604307765298e-02 0.0000000000000000e+00  1.2657513531764102e+00 3.4847667004939017e-04 0.0000000000000000e+00  6.8506050810719066e-01 -6.1367498245322510e-03 0.0000000000000000e+00  5.2294607639376434e-01 -4.6199543435153714e-03 0.0000000000000000e+00  1.3888774159052135e+00 -3.6316213899105633e-03 0.0000000000000000e+00  4.9174201594492828e-01 -3.1159610264519981e-03 0.0000000000000000e+00  6.5656474643370255e-01 -1.7384390503214623e-03 0.0000000000000000e+00  1.3073182987258505e+00 -4.4210