<?xml version="1.0"?>
<VTKFile type="UnstructuredGrid"  version="0.1"  >
<UnstructuredGrid>
<Piece  NumberOfPoints="2426" NumberOfCells="4534">
<Points>
<DataArray  type="Float64"  NumberOfComponents="3"  format="ascii">0 0.41 0  0 0 0  2.2 0 0  2.2 0.41 0  0.2404508497187474 0.2293892626146237 0  0.25 0.2 0  0.2404508497187474 0.1706107373853764 0  0.2154508497187474 0.1524471741852423 0  0.1845491502812526 0.1524471741852423 0  0.1595491502812526 0.1706107373853764 0  0.15 0.2 0  0.1595491502812526 0.2293892626146237 0  0.1845491502812527 0.2475528258147577 0  0.2154508497187474 0.2475528258147577 0  0.5404508497187474 0.2293892626146237 0  0.55 0.2 0  0.5404508497187474 0.1706107373853764 0  0.5154508497187473 0.1524471741852423 0  0.4845491502812526 0.1524471741852423 0  0.4595491502812526 0.1706107373853764 0  0.45 0.2 0  0.4595491502812526 0.2293892626146237 0  0.4845491502812526 0.2475528258147577 0  0.5154508497187473 0.2475528258147577 0  1.1 0 0  0 0.205 0  1.1 0.41 0  0.55 0 0  0.55 0.41 0  0.275 0 0  0.275 0.41 0  1.65 0.41 0  1.65 0 0  1.375 0 0  1.375 0.41 0  1.925 0 0  1.925 0.41 0  0.8250000000000001 0.41 0  0.8250000000000001 0 0  1.5125 0.205 0  1.7875 0.205 0  0.9625000000000001 0.205 0  1.2375 0.205 0  2.2 0.205 0  0.7560964076246335 0.2151713709677419 0  1.99375 0.2152743902439024 0  2.0625 0 0  0.6875 0 0  2.0625 0.41 0  2.2 0.3075 0  0.6875 0.41 0  1.7875 0.41 0  1.375 0.1486128048780488 0  1.5125 0 0  1.7875 0 0  1.5125 0.41 0  0.9625000000000001 0 0  0.9625000000000001 0.41 0  0.4125 0 0  0.1375 0 0  0.1375 0.41 0  0.4125 0.41 0  1.2375 0 0  1.1 0.1486128048780487 0  1.2375 0.41 0  1.65 0.1486128048780487 0  1.126715909090909 0.2793064024390244 0  1.676715909090909 0.2793064024390244 0  1.348284090909091 0.2793064024390244 0  0.34375 0.3032389320646208 0  1.894702181800738 0.1282910975492754 0  2.092797818199262 0.1282910975492754 0  1.85625 0.3075 0  0.8630851210521902 0.286932093388664 0  0.89375 0.1025 0  0.35 0.1090282786671641 0  0 0.3075 0  0 0.1025 0  0.6526217841291382 0.288229645480046 0  0.7562500000000001 0.09660248895515888 0  0.6568633732316684 0.1557582854763441 0  2.099172119769978 0.25625 0  1.002356446954348 0.1010393851523063 0  1.99375 0.08395950269330846 0  1.459960956013612 0.3075 0  1.569025960719943 0.2986889805672169 0  1.03125 0.3278689922742084 0  0.75625 0.3247156761655783 0  1.959375 0.3126371951219512 0  1.749222215368287 0.1025 0  1.275777784631713 0.1025 0  2.2 0.1025 0  1.225938124459196 0.3075 0  1.550777784631713 0.1025 0  1.44375 0.07430640243902442 0  1.16875 0.07430640243902437 0  0.3528655045338512 0.2063263890916129 0  0.5890337614812103 0.08775733857679162 0  0.8504912436891263 0.190072835691683 0  1.899250267340833 0.2229966846119207 0  0.1020898364287272 0.3140258291809757 0  1.766482954545455 0.2934032012195123 0  1.051658316544432 0.2265720188842194 0  0.2 0.3400647632937836 0  1.421109702350723 0.2261157654379721 0  0.4812500000000001 0.41 0  0.4324401666997539 0.3216425986889796 0  0.098916018031319 0.09171660955420841 0  0.9508742791313441 0.2921736960864468 0  2.13125 0 0  2.118919042110979 0.3422084711244843 0  1.30625 0.41 0  0.20625 0 0  1.597888256393107 0.2173787389261347 0  0.4812500000000001 0 0  0.4324082967851086 0.08384041677422771 0  1.829299675393195 0.07400700849299596 0  0.568219932524165 0.3212274660843853 0  1.71875 0.41 0  0.268005226542646 0.08512186835670006 0  1.16875 0.41 0  2.038220665644273 0.332420740103091 0  0.6678017527842831 0.07701763866051195 0  0.89375 0.41 0  0.5111435174287687 0.07335351331957608 0  0.176193934632343 0.0734896648625108 0  0.07390688010811153 0.1697064032433452 0  0.05452951551825875 0.25625 0  0.61875 0.41 0  1.452769549894695 0.1548122580621249 0  1.369219062229598 0.07430640243902442 0  1.30625 0 0  1.720943423819132 0.1714577452753128 0  1.157188124459196 0.205 0  1.094219062229598 0.07430640243902437 0  1.304056576180868 0.1714577452753128 0  1.67579304192913 0.07430640243902437 0  0.2672907219039591 0.3037570723459566 0  1.209670467133757 0.1362100266964769 0  1.58125 0 0  1.03125 0 0  0.06875000000000001 0.41 0  0 0.35875 0  1.58125 0.41 0  1.631724228912893 0.3381867502687533 0  0.8240147050827157 0.1225233169495944 0  1.825608881788174 0.14499488549201 0  1.85625 0 0  1.44375 0 0  1.44375 0.41 0  1.85625 0.41 0  2.13125 0.41 0  0.7562500000000001 0.41 0  0.7562500000000001 0 0  0.89375 0 0  0.34375 0 0  0.34375 0.41 0  0.20625 0.41 0  0.06875000000000001 0 0  1.16875 0 0  1.03125 0.41 0  0.61875 0 0  1.71875 0 0  1.99375 0 0  1.99375 0.41 0  0.3972301426712326 0.2593842555611471 0  1.340625 0.3489494290853124 0  1.134375 0.3489494290853123 0  1.700180620188976 0.3438659752031281 0  0.5003922072260507 0.341765274319271 0  0.6212513815748759 0.2209216137134851 0  0.6885607720119526 0.215393731583638 0  1.033412357328477 0.1612902025713047 0  2.135782184673599 0.07126652247502523 0  1.668441847249787 0.2129203728327609 0  1.295782514339747 0.2378437748815763 0  1.409375 0.3520314716057996 0  2.129248544730567 0.1906135162504124 0  2.060771381434487 0.1989445750470348 0  2.013252586573865 0.1496169464686054 0  1.942766402200229 0.1734448904596831 0  1.895522487186454 0.06076163953489683 0  2.069553871656643 0.06605731020975725 0  0.9281250000000001 0.3539050257418612 0  1.274680914880868 0.3520219391081363 0  0.3030138498135347 0.2488370856812789 0  0.8223773249563684 0.341761430177996 0  0.9018164060227267 0.2326477848736739 0  0.8143027982392851 0.2440265179987191 0  0.7225087161029304 0.2699907246386231 0  1.614713220494657 0.09473434380863296 0  0.378125 0.3566194660323104 0  0.309375 0.3566194660323104 0  1.72990325744076 0.2380068107952482 0  0.6915936999299305 0.3429472631234433 0  0.6268087624932918 0.3466455500035671 0  1.356580098625191 0.2120393231351682 0  0.3060160055995138 0.1590148921620778 0  0.3954648733249218 0.156380553890791 0  2.034370752044885 0.2668681600792073 0  1.51768709249349 0.3426260931494756 0  1.561883724969884 0.1650446847858835 0  1.197344062229598 0.2523725417393646 0  0.9281250000000001 0.05124999999999999 0  1.804085235518364 0.3468178408964637 0  1.817887819205233 0.2589243285818559 0  0.9107805776841645 0.1653834539923287 0  1.905897727272727 0.3485060975609756 0  0 0.05125 0  0.844212276491354 0.0614201194265309 0  0.378125 0.05244637078450034 0  1.008571329007178 0.2705955969954818 0  0.7724048032149464 0.1559079561351474 0  0.7203054377831548 0.04941826955193545 0  1.192836486056382 0.3562350748565544 0  0.5967108020713719 0.1479294686523888 0  1.28257088594801 0.2944411014911587 0  0.7041890234548132 0.1222025174424443 0  1.474860187679412 0.2504218616229368 0  1.406767003493824 0.2829282258560709 0  0.3201325899091991 0.05890121548989159 0  0.5979220912872258 0.2727591995766724 0  1.845656689180403 0.1998310418452388 0  2.144958525570388 0.2909790873294231 0  2.2 0.15375 0  1.57794966442982 0.3540357145964566 0  0.9483181579620558 0.1214693369582054 0  0.0496154796471391 0.333125 0  1.508991196088596 0.1421783375065625 0  0.09776612425612034 0.2204896805326566 0  1.50436820029908 0.06143401634903343 0  1.223857000523521 0.0823554862453532 0  0.2531953886959507 0.3582003209055908 0  1.153316824384777 0.1289850171317837 0  2.148922302309752 0.1258841779285271 0  1.621993280276081 0.2841214267927899 0  1.550118654119087 0.2461998729100966 0  1.327182649291491 0.1216967252533594 0  1.753125 0.04556020050186112 0  1.271875 0.04556020050186116 0  0.9824282234771738 0.05051969257615314 0  1.039510847866381 0.05683351822678641 0  1.94956388244759 0.1180512551534177 0  1.949997712993411 0.04965831614304109 0  1.771961817615021 0.1530278789497521 0  1.909246823951428 0.2812757146784527 0  1.101974016627944 0.2038045618205013 0  0.7906250000000001 0.0444674049654372 0  1.948575539857022 0.2445328248721197 0  1.697271520964565 0.1233917627620729 0  1.065625 0.3689344961371042 0  1.085849084308977 0.3170853572226867 0  0.9840604787624379 0.3582077516409966 0  1.577403511714593 0.05463601888079143 0  0.05622663515370135 0.05493816910862376 0  0.8762396958822678 0.3392249777398821 0  1.751571320346033 0.3651102912045228 0  1.055327852410105 0.111864799513911 0  0.1583785085108421 0.2994699345738728 0  0.1455283439499995 0.3542795598723423 0  2.2 0.35875 0  0.225705107073232 0.05084786997482401 0  0.1455852234589313 0.1166494778469164 0  1.466879772203159 0.3611261772912453 0  1.990280163552011 0.3564754268533217 0  1.17471064520912 0.2990917256188288 0  0.7221925551074015 0.1739659241003985 0  0 0.25625 0  2.2 0.25625 0  2.2 0.05125 0  0 0.15375 0  1.853978576207987 0.35875 0  0.21965520498276 0.1015543880164422 0  1.515638456102889 0.2882700110184686 0  0.09048297387599738 0.3637717362208066 0  2.150453692751374 0.2387066338105111 0  1.323782677156475 0.04897634338873398 0  1.409375 0.03715320121951221 0  1.406484531114799 0.1087852750766809 0  1.134375 0.03715320121951218 0  1.627401732573545 0.04552157221025036 0  0.446875 0.3713289093361426 0  2.045405893604797 0.1105340662939892 0  1.255408269734577 0.1577307500159216 0  2.028125 0.03707597992059326 0  0.04420832937638274 0.128125 0  0.5817551710628505 0.3702615006034757 0  0.1197849154434487 0.2663398672460083 0  1.248258025468107 0.2565907092181813 0  0.1300647302703173 0.0508462728378621 0  0.7738123537510222 0.2761231499240648 0  1.203125 0.0366132337404304 0  0.5444207041612499 0.111205399508622 0  0.8016457771828226 0.1964238426015905 0  2.072662025974815 0.2975086504196739 0  0.4019040438866802 0.2103993403217561 0  0.4677372330974851 0.04827477407630658 0  0.8677218578847617 0.1432970430140788 0  1.058011122005847 0.2758866204059919 0  0.4429405887974043 0.2746184809910084 0  0.5843750000000001 0.03726989681835222 0  0.6318596133730142 0.1128692182767254 0  0.4862628454464408 0.2957029785303028 0  0.7805186758662764 0.3673578380827891 0  1.887722846421017 0.1760882698830035 0  0.3498893058880703 0.256189258793856 0  1.472640588990488 0.1118278026240017 0  1.865937103925594 0.2604137786483804 0
[...]
<PointData  Vectors="f_37"> 
<DataArray  type="Float64"  Name="f_37"  NumberOfComponents="3" format="ascii">-6.1308043462100990e-07 2.0387300856011323e-08 0.0000000000000000e+00  3.7115848319240798e-07 -2.9770566427928691e-08 0.0000000000000000e+00  -1.9561347697158894e-06 5.7375161474884937e-08 0.0000000000000000e+00  -7.7731923102160796e-07 -7.3487760287865767e-08 0.0000000000000000e+00  -1.0056711873372895e-06 4.5703754484251387e-08 0.0000000000000000e+00  -7.7034689187456492e-07 -1.7715671116830668e-08 0.0000000000000000e+00  -1.6392601833746459e-06 2.4506874806522293e-07 0.0000000000000000e+00  1.2035729354498647e-06 3.0035421326903238e-07 0.0000000000000000e+00  2.9238860062079275e-06 -4.4089015086520132e-07 0.0000000000000000e+00  -9.4513139937487956e-07 6.8390227486551258e-08 0.0000000000000000e+00  -1.7312555314042071e-06 1.0776888748103547e-06 0.0000000000000000e+00  6.3506918184965788e-07 2.2263550229926956e-06 0.0000000000000000e+00  -3.8128912826338245e-06 -1.2746605236435408e-06 0.0000000000000000e+00  -3.5754619582640428e-06 -8.1498401982204037e-07 0.0000000000000000e+00  -2.1862186801158355e-06 8.6135935818867117e-07 0.0000000000000000e+00  -1.4924020260617706e-06 2.8012172912396075e-06 0.0000000000000000e+00  -3.6916518904156979e-06 3.4386198845164704e-07 0.0000000000000000e+00  -3.5419522246026699e-06 -2.9977262378347432e-07 0.0000000000000000e+00  -2.9210285675101616e-06 -6.6670519757113231e-08 0.0000000000000000e+00  -9.6759567444676587e-07 3.5628594600468593e-07 0.0000000000000000e+00  -1.0720856738731956e-06 8.5354012934594578e-07 0.0000000000000000e+00  -1.5783891972337469e-06 6.8123959643566271e-07 0.0000000000000000e+00  3.9113914913092162e-07 2.9708924402274737e-07 0.0000000000000000e+00  1.8382678892306265e-07 1.4750417565657036e-07 0.0000000000000000e+00  1.1159130153494386e-06 2.3178382669568749e-07 0.0000000000000000e+00  1.5000025282696108e+00 1.3172455045412682e-08 0.0000000000000000e+00  -3.1851702684712380e-06 7.3272375657957505e-08 0.0000000000000000e+00  -2.1906132963161785e-06 -1.3257258488203349e-07 0.0000000000000000e+00  -1.0512749204775547e-06 1.1813292393973634e-08 0.0000000000000000e+00  -2.7154825850195024e-06 9.5715079682651648e-08 0.0000000000000000e+00  -1.0028066420537181e-06 -1.9778230194146537e-08 0.0000000000000000e+00  2.4002186690365632e-06 -9.9233820673723702e-08 0.0000000000000000e+00  -1.1048077544310760e-06 1.1613391346664235e-07 0.0000000000000000e+00  3.8039678496020516e-06 -3.3136086514774821e-07 0.0000000000000000e+00  -6.8180979538794452e-07 -3.4910216405834298e-07 0.0000000000000000e+00  5.8226251077699357e-07 4.0530504699440932e-08 0.0000000000000000e+00  -2.3471699643697426e-06 -1.0710293908943869e-07 0.0000000000000000e+00  5.8604339967400399e-07 2.3209219439531221e-07 0.0000000000000000e+00  -3.6901157465776788e-06 1.9593054373416056e-07 0.0000000000000000e+00  1.0450528255439364e+00 8.2233026339452744e-02 0.0000000000000000e+00  1.1411445153460138e+00 -7.0601681417630971e-02 0.0000000000000000e+00  6.1573904886922459e-01 -3.9496428876347925e-02 0.0000000000000000e+00  9.3237552210559971e-01 -2.9363477182508868e-02 0.0000000000000000e+00  1.2038934201217679e+00 -1.0123473194532182e-01 0.0000000000000000e+00  2.2182415753343568e-01 -1.7797183459078811e-02 0.0000000000000000e+00  1.2216544505627276e+00 9.5847817177102043e-02 0.0000000000000000e+00  -1.1309815507234204e-06 5.1001893999331031e-08 0.0000000000000000e+00  -5.5455015517665749e-07 -9.7664575398858142e-08 0.0000000000000000e+00  2.3618871481992617e-06 1.8416702118341520e-07 0.0000000000000000e+00  1.2326948253768986e+00 1.8099120915559899e-02 0.0000000000000000e+00  -1.2356378049732980e-06 3.1215439643860511e-08 0.0000000000000000e+00  -2.2466302575863905e-06 3.3933525319257811e-08 0.0000000000000000e+00  1.4144158870831547e+00 2.7887635585508112e-02 0.0000000000000000e+00  1.2387662992611798e-06 1.8507624184363006e-07 0.0000000000000000e+00  4.5646138624295541e-07 -3.3325529908955319e-07 0.0000000000000000e+00  6.4200511155925813e-07 3.7799580835443073e-07 0.0000000000000000e+00  -1.5387567517409200e-06 -1.7693754864724752e-07 0.0000000000000000e+00  1.5222456970635059e-07 -8.2795566235220556e-08 0.0000000000000000e+00  -9.6519189226684874e-07 -2.6627786035451171e-08 0.0000000000000000e+00  2.9618064797955847e-07 6.6124005916465332e-08 0.0000000000000000e+00  6.1023322994933996e-07 1.3449087932154789e-07 0.0000000000000000e+00  -2.5490555078610847e-06 1.1758990831917490e-07 0.0000000000000000e+00  -1.6669199228918759e-06 1.1997998900976593e-07 0.0000000000000000e+00  1.4077137410306280e+00 3.8717894573436405e-02 0.0000000000000000e+00  2.2475609558935268e-06 1.5318845747189770e-07 0.0000000000000000e+00  1.2017070503176608e+00 -2.3996738255796027e-02 0.0000000000000000e+00  1.5911192860815284e+00 -2.6809812669898594e-02 0.0000000000000000e+00  1.4325059392487436e+00 -5.0546100367540826e-03 0.0000000000000000e+00  1.4805680614501378e+00 1.2244583461929023e-02 0.0000000000000000e+00  1.9612123010522873e+00 2.9033689075151043e-02 0.0000000000000000e+00  1.3535775815549449e+00 9.7182899211109269e-03 0.0000000000000000e+00  1.1859142109773433e+00 -3.6968713591483779e-02 0.0000000000000000e+00  1.2877864165280302e+00 5.5296525077730948e-03 0.0000000000000000e+00  1.6698981342898309e+00 -1.1972614052881740e-01 0.0000000000000000e+00  1.5605854841193267e+00 7.0561984255411464e-02 0.0000000000000000e+00  1.8637797991826675e+00 8.9328407117546058e-03 0.0000000000000000e+00  1.1249986005185537e+00 -1.7252565868061453e-07 0.0000000000000000e+00  1.1250027181982796e+00 1.4953541916615637e-08 0.0000000000000000e+00  1.7651091471045395e+00 -1.5955660329062296e-01 0.0000000000000000e+00  1.6345211396876449e+00 1.3612664000833424e-01 0.0000000000000000e+00  7.6139407442922380e-01 1.1175165194629676e-01 0.0000000000000000e+00  1.4361842504779951e+00 -3.9618017378664050e-02 0.0000000000000000e+00  1.4885515162121401e+00 4.8658419779000116e-02 0.0000000000000000e+00  1.0937788009680736e+00 -7.5761662730335511e-03 0.0000000000000000e+00  1.3852975171305244e+00 -3.0032929139001507e-03 0.0000000000000000e+00  1.4315326899035286e+00 -2.5327887848389387e-02 0.0000000000000000e+00  1.2447268339934197e+00 -1.0597130799633316e-02 0.0000000000000000e+00  1.5568176201411916e+00 -1.2499018450299236e-01 0.0000000000000000e+00  1.2857974744366452e+00 -1.1759070643841936e-02 0.0000000000000000e+00  1.3236264982201287e+00 1.7174592641363406e-02 0.0000000000000000e+00  1.4064059819477319e+00 6.4310939872536041e-03 0.0000000000000000e+00  1.2751576379844962e+00 5.3747509404483904e-03 0.0000000000000000e+00  1.4080199279399763e+00 -1.3406105098752412e-02 0.0000000000000000e+00  1.2932793947769143e+00 -1.0158214907397977e-02 0.0000000000000000e+00  1.0313704618150012e+00 -9.3251335592327948e-03 0.0000000000000000e+00  1.0835190473480345e+00 -1.1259182620774790e-02 0.0000000000000000e+00  -3.3070856266718429e-01 -1.5879628999129668e-02 0.0000000000000000e+00  1.7813315982274194e+00 1.2601231648486400e-01 0.0000000000000000e+00  3.9459432190470223e-01 1.3751899666689211e-02 0.0000000000000000e+00  1.1792041621869942e+00 8.0122780693319101e-02 0.0000000000000000e+00  1.1818725973743762e+00 2.5547753748865093e-01 0.0000000000000000e+00  1.3335915593483989e+00 1.0686013913844928e-02 0.0000000000000000e+00  9.4661274330922984e-01 -7.4197092653977767e-03 0.0000000000000000e+00  1.3810797794694134e+00 2.1759841238184882e-01 0.0000000000000000e+00  1.0563563270049878e+00 1.4349609700101172e-02 0.0000000000000000e+00  9.8422767230668802e-07 -2.8062254784640022e-08 0.0000000000000000e+00  1.8375022406702131e+00 -6.1987576911407438e-02 0.0000000000000000e+00  1.1435503823601019e+00 -2.5635690779121745e-01 0.0000000000000000e+00  1.6008688050733066e+00 -5.4357748031358448e-02 0.0000000000000000e+00  -1.9624745739739992e-06 3.4102871461002786e-07 0.0000000000000000e+00  9.5687665476133410e-01 1.8431394387091581e-02 0.0000000000000000e+00  -1.2345428558483093e-06 -3.5019985052806393e-07 0.0000000000000000e+00  -6.9325381072217595e-06 2.7625152802118020e-07 0.0000000000000000e+00  1.2116559135167160e+00 -6.7804181244755218e-03 0.0000000000000000e+00  7.8206888196713352e-07 -4.5515685258955936e-08 0.0000000000000000e+00  1.8275915972530405e+00 7.7433373050720733e-02 0.0000000000000000e+00  9.9947337035562989e-01 -5.7714336932200789e-04 0.0000000000000000e+00  1.7905773066577002e+00 -1.1173603830675510e-01 0.0000000000000000e+00  -3.1515213327158679e-06 -2.3045081458326222e-07 0.0000000000000000e+00  1.7977774702758242e+00 -1.4139725410997728e-01 0.0000000000000000e+00  1.3235241936573959e-07 3.6709261916214451e-07 0.0000000000000000e+00  1.0422955352436281e+00 2.0420864512648404e-03 0.0000000000000000e+00  1.5987695193406071e+00 1.3283885764248018e-01 0.0000000000000000e+00  -3.2994143525909347e-07 9.4958891775464167e-08 0.0000000000000000e+00  1.7241440565504529e+00 7.5898754680730873e-02 0.0000000000000000e+00  1.3596010624491697e+00 -3.0229734061622304e-01 0.0000000000000000e+00  1.3399750418344418e+00 -1.2279052841050912e-01 0.0000000000000000e+00  1.3729797679787699e+00 1.2469391710280060e-01 0.0000000000000000e+00  -5.0453178625539727e-07 -2.7198551547998940e-08 0.0000000000000000e+00  1.3619976709097830e+00 4.0820622084980100e-02 0.0000000000000000e+00  1.0479643282797477e+00 2.3155531574722324e-03 0.0000000000000000e+00  5.6021516737549586e-08 -4.1570520143956088e-07 0.0000000000000000e+00  1.1607263754087269e+00 -8.5157878511667381e-02 0.0000000000000000e+00  8.5517430045912290e-01 2.5054642026444099e-02 0.0000000000000000e+00  1.0931767133353489e+00 -5.8091306962239526e-04 0.0000000000000000e+00  1.1097049546449806e+00 -2.5110065332561732e-02 0.0000000000000000e+00  1.0446415481440563e+00 9.2390579455042972e-04 0.0000000000000000e+00  1.9204464402173993e+00 1.8448755769645397e-01 0.0000000000000000e+00  1.4367803416591536e+00 -4.0994911446637292e-03 0.0000000000000000e+00  1.5950490443876010e-06 5.7212333874617184e-08 0.0000000000000000e+00  2.1328112727979562e-06 -2.1456667644870121e-07 0.0000000000000000e+00  -7.9877724384955754e-07 -5.6373004733747703e-08 0.0000000000000000e+00  6.5625204018316208e-01 1.6086051180928463e-08 0.0000000000000000e+00  2.0108476558432582e-06 2.9233326348827283e-07 0.0000000000000000e+00  9.8146434531215909e-01 1.0339217255538815e-02 0.0000000000000000e+00  1.6092317985652969e+00 1.1055275933858226e-01 0.0000000000000000e+00  1.4425610655078833e+00 4.6541345784512411e-02 0.0000000000000000e+00  1.2824699821592991e-06 1.0170333062189829e-07 0.0000000000000000e+00  -1.2403444021104011e-06 1.2156885746130291e-07 0.0000000000000000e+00  -2.8557737770450078e-06 -8.3178080063506816e-08 0.0000000000000000e+00  -2.1907325615996772e-06 -7.2737589765759915e-08 0.0000000000000000e+00  -1.0339069103529919e-06 -4.8348534699729861e-07 0.0000000000000000e+00  -9.8272515114808402e-07 2.8962735740667087e-08 0.0000000000000000e+00  -1.8932222004150656e-06 -8.7177071130694570e-08 0.0000000000000000e+00  -2.9803964027608428e-06 7.9488816583205238e-08 0.0000000000000000e+00  3.9069539080562905e-08 4.8335995832920900e-09 0.0000000000000000e+00  5.0089678124921722e-07 1.9138720612237502e-08 0.0000000000000000e+00  1.1913502875229623e-06 -8.2498401891648794e-08 0.0000000000000000e+00  -8.2529799948250925e-07 1.4465548264093143e-07 0.0000000000000000e+00  -7.1607976345544811e-07 2.4858959300258545e-07 0.0000000000000000e+00  -3.5247511619038696e-06 -2.9940203393844211e-07 0.0000000000000000e+00  -2.2422997629191615e-06 -2.4216500113417884e-07 0.0000000000000000e+00  -3.5981644214263864e-06 -1.3771810210824402e-07 0.0000000000000000e+00  -6.5469783868501487e-07 -2.0382728301837991e-07 0.0000000000000000e+00  -2.1165015210964448e-06 4.4298995962277010e-07 0.0000000000000000e+00  7.2690525861677513e-01 -4.5606403216703402e-02 0.0000000000000000e+00  8.5942832525946100e-01 1.2629809914197434e-02 0.0000000000000000e+00  8.7415560694847538e-01 -5.6823407097555028e-03 0.0000000000000000e+00  9.2877201879089610e-01 1.3395104829242136e-02 0.0000000000000000e+00  1.6539434820282910e+00 -6.9044001775924083e-02 0.0000000000000000e+00  -1.8456873361105154e-03 -1.6904402092980105e-02 0.0000000000000000e+00  2.7401186420305781e-02 -2.0691093078813030e-02 0.0000000000000000e+00  1.2440894554416673e+00 5.3504690733672679e-02 0.0000000000000000e+00  1.0086334870750417e+00 -8.3434619680281593e-03 0.0000000000000000e+00  1.2245858150203688e+00 -6.7218816715944152e-02 0.0000000000000000e+00  1.2636004383764012e+00 -4.1676053765639091e-02 0.0000000000000000e+00  8.2358380651593055e-01 5.9952286683331085e-03 0.0000000000000000e+00  1.2436014252665182e+00 -8.9033972949638954e-02 0.0000000000000000e+00  1.2484879394393207e+00 -2.5307166316785264e-02 0.0000000000000000e+00  1.2027609269084283e+00 4.7710300381908113e-02 0.0000000000000000e+00  1.2766930669119398e+00 7.3201938486800205e-02 0.0000000000000000e+00  8.5624479411298771e-01 -5.0788201820500881e-03 0.0000000000000000e+00  9.3830705260188874e-01 -1.0128974151596854e-02 0.0000000000000000e+00  8.7094849649044359e-01 -1.9187630863178391e-02 0.0000000000000000e+00  8.0169957802681779e-01 8.9859153459877824e-03 0.0000000000000000e+00  2.3262213727565181e-01 5.2115264864865195e-02 0.0000000000000000e+00  1.2268851150261704e+00 -7.7009124673186366e-02 0.0000000000000000e+00  9.9809099210912644e-01 -8.8997121704300769e-02 0.0000000000000000e+00  1.1236059514766283e+00 -1.1595746576046087e-01 0.0000000000000000e+00  1.5514526325253046e+00 -1.5887281592922448e-01 0.0000000000000000e+00  1.2484869783222230e+00 -3.9704797398012696e-03 0.0000000000000000e+00  1.5330533820302059e+00 -2.6824111718956739e-02 0.0000000000000000e+00  1.4841318054560071e+00 3.1844115113432957e-02 0.0000000000000000e+00  1.2946769275030408e+00 -5.3061764140199176e-02 0.0000000000000000e+00  1.4333630209474184e+00 -1.0663257427209791e-01 0.0000000000000000e+00  1.4829329656091961e+00 -1.0017003972023764e-01 0.0000000000000000e+00  9.9004802737932152e-01 -4.0774205603999733e-02 0.0000000000000000e+00  7.9163538833932429e-02 -5.3918497979272458e-02 0.0000000000000000e+00  2.8486710939508847e-01 2.1649109836110292e-02 0.0000000000000000e+00  1.4901543202123466e+00 -5.2706649067042192e-02 0.0000000000000000e+00  9.4697568415670186e-01 -4.4047343704196624e-03 0.0000000000000000e+00  1.1487734197587429e+00 4.6215111294904243e-02 0.0000000000000000e+00  1.4456127785224386e+00 -3.9387146226527725e-02 0.0000000000000000e+00  7.9293967417372235e-01 2.0245128102563705e-02 0.0000000000000000e+00  9.0890498957687216e-01 1.7609790239989883e-03 0.0000000000000000e+00  1.2428944705593390e+00 -1.5819638071822278e-02 0.0000000000000000e+00  9.9409107266535612e-01 3.9522181868831274e-02 0.0000000000000000e+00  8.8398309621988680e-01 3.2470251405100647e-04 0.0000000000000000e+00  6.5624905777825804e-01 8.6043744795351375e-08 0.0000000000000000e+00  1.0841830823886183e+00 4.7411279754051967e-02 0.0000000000000000e+00  1.5685339102533540e+00 3.6732515639426172e-02 0.0000000000000000e+00  1.5656098595608416e+00 -2.8998860654789640e-02 0.0000000000000000e+00  1.0353055849328670e+00 1.3124579985976126e-01 0.0000000000000000e+00  1.0645658922890613e+00 7.0649702691689326e-02 0.0000000000000000e+00  7.3845503892757358e-01 -7.3198012219980184e-04 0.0000000000000000e+00  8.1449363002931252e-01 8.5918035409306454e-02 0.0000000000000000e+00  1.4744521044143366e+00 -9.1174212962691435e-04 0.0000000000000000e+00  1.6554885836302158e+00 1.7771531265862497e-01 0.0000000000000000e+00  1.3026864696947711e+00 2.7690505147878099e-02 0.0000000000000000e+00  1.4679807213876590e+00 1.6388328205132554e-02 0.0000000000000000e+00  1.6078498352658479e+00 -1.7519279744875126e-02 0.0000000000000000e+00  1.4919833546147332e+00 -1.3637126276121900e-01 0.0000000000000000e+00  1.2237692633696691e+00 2.7986542199171707e-02 0.0000000000000000e+00  1.2973378344050575e+00 3.0277275814797191e-02 0.0000000000000000e+00  1.2745701310707465e+00 -6.6056889315651818e-02 0.0000000000000000e+00  7.7885065582367696e-01 2.2382079780424000e-03 0.0000000000000000e+00  1.5989695541634641e+00 6.7256626286764556e-02 0.0000000000000000e+00  9.4150095468490036e-01 9.3616542742378350e-02 0.0000000000000000e+00  1.3577972587957372e+00 1.9382888140595925e-02 0.0000000000000000e+00  1.2233686383987628e+00 1.6061752883471825e-01 0.0000000000000000e+00  8.7101106112991933e-01 -9.8081475540303213e-03 0.0000000000000000e+00  1.1960780996566778e+00 -5.8241485970244242e-03 0.0000000000000000e+00  1.3609436212643753e+00 9.6561812465056171e-02 0.0000000000000000e+00  1.4922301284326536e+00 3.9993868813790207e-03 0.0000000000000000e+00  1.2493073662639271e+00 -5.4461151216361428e-02 0.0000000000000000e+00  1.4738233952781759e+00 -2.5038550733857187e-02 0.0000000000000000e+00  1.3802037798138189e+00 -1.1194892622533436e-03 0.0000000000000000e+00  1.4915739094939435e+00 1.9836888536223014e-02 0.0000000000000000e+00  6.5828406579205345e-01 7.4851628550673237e-04 0.0000000000000000e+00  6.3129588585420482e-01 -1.9930041879177695e-03 0.0000000000000000e+00  7.3625405528732357e-01 1.3347398693134218e-02 0.0000000000000000e+00  8.2051202719607541e-01 6.8170652395412347e-03 0.0000000000000000e+00  1.2836250844523880e+00 1.8422082203478198e-03 0.0000000000000000e+00  7.2458929208569522e-01 -4.5910702605803785e-03 0.0000000000000000e+00  1.3683282239346897e+00 -5.5579435969432744e-03 0.0000000000000000e+00  1.3503563141162480e+00 2.8949526199769357e-02 0.0000000000000000e+00  7.9376678799789202e-01 3.5961921947862241e-02 0.0000000000000000e+00  8.1937461005026802e-01 3.8783145551501579e-02 0.0000000000000000e+00  1.2605680409903319e+00 8.9681846570198273e-02 0.0000000000000000e+00  1.3663372752152527e+00 -1.1804855764755949e-02 0.0000000000000000e+00  5.5185584539305366e-01 1.0150728144936549e-03 0.0000000000000000e+00  1.3682497929214175e+00 -1.4709571481715413e-02 0.0000000000000000e+00  7.5783088165283530e-01 -4.2036013810670229e-03 0.0000000000000000e+00  7.8678596464072359e-01 -4.3366489160446206e-03 0.0000000000000000e+00  7.3880803476405565e-01 -7.9175606787510802e-02 0.0000000000000000e+00  1.1885286257677998e+00 -5.6439903140661246e-02 0.0000000000000000e+00  6.6066757803256315e-01 4.4675516840299587e-03 0.0000000000000000e+00  1.5267857798038509e+00 3.6079527609415178e-02 0.0000000000000000e+00  1.5284268601450595e+00 4.7609589759722376e-01 0.0000000000000000e+00  1.0046224581802043e+00 1.8217526283900737e-01 0.0000000000000000e+00  7.9541906253589323e-01 1.0760684988775381e-02 0.0000000000000000e+00  1.3189438313024808e+00 -1.2566336415967269e-01 0.0000000000000000e+00  1.4488719352532664e+00 -5.4607119197134601e-01 0.0000000000000000e+00  6.8772245324481107e-01 4.0349953262943967e-04 0.0000000000000000e+00  7.7638620653644541e-01 -7.1937577453365105e-04 0.0000000000000000e+00  1.5083714468983369e+00 -2.7558292281178138e-02 0.0000000000000000e+00  3.9939289319373411e-01 9.5081810902592462e-02 0.0000000000000000e+00  1.4062540055948720e+00 1.2158470512024408e-07 0.0000000000000000e+00  1.2873917729076196e+00 -2.0506705216804023e-02 0.0000000000000000e+00  7.7831714405658092e-01 -2.9221403341304561e-03 0.0000000000000000e+00  1.4062506010504210e+00 3.4871605711033965e-08 0.0000000000000000e+00  7.5020674862456638e-01 1.3423634520617548e-03 0.0000000000000000e+00  1.8371957129647509e+00 -3.2981393061037795e-01 0.0000000000000000e+00  1.5021873372416596e+00 -1.8744787433062637e-02 0.0000000000000000e+00  7.1442622727407079e-01 9.8566291962488742e-02 0.0000000000000000e+00  1.3497260250917607e+00 -2.8875782647442103e-02 0.0000000000000000e+00  6.8074158325526712e-01 3.9513699206093421e-05 0.0000000000000000e+00  5.0999303598540568e-01 -3.3057365304793611e-03 0.0000000000000000e+00  1.4007432336595855e+00 1.4251182393741553e-02 0.0000000000000000e+00  4.8274829408603370e-01 -7.0258394729819122e-03 0.0000000000000000e+00  6.5912557825444640e-01 -2.4718925660500153e-03 0.0000000000000000e+00  1.3057294199610956e+00 -4.4258