<?xml version="1.0"?>
<VTKFile type="UnstructuredGrid"  version="0.1"  >
<UnstructuredGrid>
<Piece  NumberOfPoints="2426" NumberOfCells="4534">
<Points>
<DataArray  type="Float64"  NumberOfComponents="3"  format="ascii">0 0.41 0  0 0 0  2.2 0 0  2.2 0.41 0  0.2404508497187474 0.2293892626146237 0  0.25 0.2 0  0.2404508497187474 0.1706107373853764 0  0.2154508497187474 0.1524471741852423 0  0.1845491502812526 0.1524471741852423 0  0.1595491502812526 0.1706107373853764 0  0.15 0.2 0  0.1595491502812526 0.2293892626146237 0  0.1845491502812527 0.2475528258147577 0  0.2154508497187474 0.2475528258147577 0  0.5404508497187474 0.2293892626146237 0  0.55 0.2 0  0.5404508497187474 0.1706107373853764 0  0.5154508497187473 0.1524471741852423 0  0.4845491502812526 0.1524471741852423 0  0.4595491502812526 0.1706107373853764 0  0.45 0.2 0  0.4595491502812526 0.2293892626146237 0  0.4845491502812526 0.2475528258147577 0  0.5154508497187473 0.2475528258147577 0  1.1 0 0  0 0.205 0  1.1 0.41 0  0.55 0 0  0.55 0.41 0  0.275 0 0  0.275 0.41 0  1.65 0.41 0  1.65 0 0  1.375 0 0  1.375 0.41 0  1.925 0 0  1.925 0.41 0  0.8250000000000001 0.41 0  0.8250000000000001 0 0  1.5125 0.205 0  1.7875 0.205 0  0.9625000000000001 0.205 0  1.2375 0.205 0  2.2 0.205 0  0.7560964076246335 0.2151713709677419 0  1.99375 0.2152743902439024 0  2.0625 0 0  0.6875 0 0  2.0625 0.41 0  2.2 0.3075 0  0.6875 0.41 0  1.7875 0.41 0  1.375 0.1486128048780488 0  1.5125 0 0  1.7875 0 0  1.5125 0.41 0  0.9625000000000001 0 0  0.9625000000000001 0.41 0  0.4125 0 0  0.1375 0 0  0.1375 0.41 0  0.4125 0.41 0  1.2375 0 0  1.1 0.1486128048780487 0  1.2375 0.41 0  1.65 0.1486128048780487 0  1.126715909090909 0.2793064024390244 0  1.676715909090909 0.2793064024390244 0  1.348284090909091 0.2793064024390244 0  0.34375 0.3032389320646208 0  1.894702181800738 0.1282910975492754 0  2.092797818199262 0.1282910975492754 0  1.85625 0.3075 0  0.8630851210521902 0.286932093388664 0  0.89375 0.1025 0  0.35 0.1090282786671641 0  0 0.3075 0  0 0.1025 0  0.6526217841291382 0.288229645480046 0  0.7562500000000001 0.09660248895515888 0  0.6568633732316684 0.1557582854763441 0  2.099172119769978 0.25625 0  1.002356446954348 0.1010393851523063 0  1.99375 0.08395950269330846 0  1.459960956013612 0.3075 0  1.569025960719943 0.2986889805672169 0  1.03125 0.3278689922742084 0  0.75625 0.3247156761655783 0  1.959375 0.3126371951219512 0  1.749222215368287 0.1025 0  1.275777784631713 0.1025 0  2.2 0.1025 0  1.225938124459196 0.3075 0  1.550777784631713 0.1025 0  1.44375 0.07430640243902442 0  1.16875 0.07430640243902437 0  0.3528655045338512 0.2063263890916129 0  0.5890337614812103 0.08775733857679162 0  0.8504912436891263 0.190072835691683 0  1.899250267340833 0.2229966846119207 0  0.1020898364287272 0.3140258291809757 0  1.766482954545455 0.2934032012195123 0  1.051658316544432 0.2265720188842194 0  0.2 0.3400647632937836 0  1.421109702350723 0.2261157654379721 0  0.4812500000000001 0.41 0  0.4324401666997539 0.3216425986889796 0  0.098916018031319 0.09171660955420841 0  0.9508742791313441 0.2921736960864468 0  2.13125 0 0  2.118919042110979 0.3422084711244843 0  1.30625 0.41 0  0.20625 0 0  1.597888256393107 0.2173787389261347 0  0.4812500000000001 0 0  0.4324082967851086 0.08384041677422771 0  1.829299675393195 0.07400700849299596 0  0.568219932524165 0.3212274660843853 0  1.71875 0.41 0  0.268005226542646 0.08512186835670006 0  1.16875 0.41 0  2.038220665644273 0.332420740103091 0  0.6678017527842831 0.07701763866051195 0  0.89375 0.41 0  0.5111435174287687 0.07335351331957608 0  0.176193934632343 0.0734896648625108 0  0.07390688010811153 0.1697064032433452 0  0.05452951551825875 0.25625 0  0.61875 0.41 0  1.452769549894695 0.1548122580621249 0  1.369219062229598 0.07430640243902442 0  1.30625 0 0  1.720943423819132 0.1714577452753128 0  1.157188124459196 0.205 0  1.094219062229598 0.07430640243902437 0  1.304056576180868 0.1714577452753128 0  1.67579304192913 0.07430640243902437 0  0.2672907219039591 0.3037570723459566 0  1.209670467133757 0.1362100266964769 0  1.58125 0 0  1.03125 0 0  0.06875000000000001 0.41 0  0 0.35875 0  1.58125 0.41 0  1.631724228912893 0.3381867502687533 0  0.8240147050827157 0.1225233169495944 0  1.825608881788174 0.14499488549201 0  1.85625 0 0  1.44375 0 0  1.44375 0.41 0  1.85625 0.41 0  2.13125 0.41 0  0.7562500000000001 0.41 0  0.7562500000000001 0 0  0.89375 0 0  0.34375 0 0  0.34375 0.41 0  0.20625 0.41 0  0.06875000000000001 0 0  1.16875 0 0  1.03125 0.41 0  0.61875 0 0  1.71875 0 0  1.99375 0 0  1.99375 0.41 0  0.3972301426712326 0.2593842555611471 0  1.340625 0.3489494290853124 0  1.134375 0.3489494290853123 0  1.700180620188976 0.3438659752031281 0  0.5003922072260507 0.341765274319271 0  0.6212513815748759 0.2209216137134851 0  0.6885607720119526 0.215393731583638 0  1.033412357328477 0.1612902025713047 0  2.135782184673599 0.07126652247502523 0  1.668441847249787 0.2129203728327609 0  1.295782514339747 0.2378437748815763 0  1.409375 0.3520314716057996 0  2.129248544730567 0.1906135162504124 0  2.060771381434487 0.1989445750470348 0  2.013252586573865 0.1496169464686054 0  1.942766402200229 0.1734448904596831 0  1.895522487186454 0.06076163953489683 0  2.069553871656643 0.06605731020975725 0  0.9281250000000001 0.3539050257418612 0  1.274680914880868 0.3520219391081363 0  0.3030138498135347 0.2488370856812789 0  0.8223773249563684 0.341761430177996 0  0.9018164060227267 0.2326477848736739 0  0.8143027982392851 0.2440265179987191 0  0.7225087161029304 0.2699907246386231 0  1.614713220494657 0.09473434380863296 0  0.378125 0.3566194660323104 0  0.309375 0.3566194660323104 0  1.72990325744076 0.2380068107952482 0  0.6915936999299305 0.3429472631234433 0  0.6268087624932918 0.3466455500035671 0  1.356580098625191 0.2120393231351682 0  0.3060160055995138 0.1590148921620778 0  0.3954648733249218 0.156380553890791 0  2.034370752044885 0.2668681600792073 0  1.51768709249349 0.3426260931494756 0  1.561883724969884 0.1650446847858835 0  1.197344062229598 0.2523725417393646 0  0.9281250000000001 0.05124999999999999 0  1.804085235518364 0.3468178408964637 0  1.817887819205233 0.2589243285818559 0  0.9107805776841645 0.1653834539923287 0  1.905897727272727 0.3485060975609756 0  0 0.05125 0  0.844212276491354 0.0614201194265309 0  0.378125 0.05244637078450034 0  1.008571329007178 0.2705955969954818 0  0.7724048032149464 0.1559079561351474 0  0.7203054377831548 0.04941826955193545 0  1.192836486056382 0.3562350748565544 0  0.5967108020713719 0.1479294686523888 0  1.28257088594801 0.2944411014911587 0  0.7041890234548132 0.1222025174424443 0  1.474860187679412 0.2504218616229368 0  1.406767003493824 0.2829282258560709 0  0.3201325899091991 0.05890121548989159 0  0.5979220912872258 0.2727591995766724 0  1.845656689180403 0.1998310418452388 0  2.144958525570388 0.2909790873294231 0  2.2 0.15375 0  1.57794966442982 0.3540357145964566 0  0.9483181579620558 0.1214693369582054 0  0.0496154796471391 0.333125 0  1.508991196088596 0.1421783375065625 0  0.09776612425612034 0.2204896805326566 0  1.50436820029908 0.06143401634903343 0  1.223857000523521 0.0823554862453532 0  0.2531953886959507 0.3582003209055908 0  1.153316824384777 0.1289850171317837 0  2.148922302309752 0.1258841779285271 0  1.621993280276081 0.2841214267927899 0  1.550118654119087 0.2461998729100966 0  1.327182649291491 0.1216967252533594 0  1.753125 0.04556020050186112 0  1.271875 0.04556020050186116 0  0.9824282234771738 0.05051969257615314 0  1.039510847866381 0.05683351822678641 0  1.94956388244759 0.1180512551534177 0  1.949997712993411 0.04965831614304109 0  1.771961817615021 0.1530278789497521 0  1.909246823951428 0.2812757146784527 0  1.101974016627944 0.2038045618205013 0  0.7906250000000001 0.0444674049654372 0  1.948575539857022 0.2445328248721197 0  1.697271520964565 0.1233917627620729 0  1.065625 0.3689344961371042 0  1.085849084308977 0.3170853572226867 0  0.9840604787624379 0.3582077516409966 0  1.577403511714593 0.05463601888079143 0  0.05622663515370135 0.05493816910862376 0  0.8762396958822678 0.3392249777398821 0  1.751571320346033 0.3651102912045228 0  1.055327852410105 0.111864799513911 0  0.1583785085108421 0.2994699345738728 0  0.1455283439499995 0.3542795598723423 0  2.2 0.35875 0  0.225705107073232 0.05084786997482401 0  0.1455852234589313 0.1166494778469164 0  1.466879772203159 0.3611261772912453 0  1.990280163552011 0.3564754268533217 0  1.17471064520912 0.2990917256188288 0  0.7221925551074015 0.1739659241003985 0  0 0.25625 0  2.2 0.25625 0  2.2 0.05125 0  0 0.15375 0  1.853978576207987 0.35875 0  0.21965520498276 0.1015543880164422 0  1.515638456102889 0.2882700110184686 0  0.09048297387599738 0.3637717362208066 0  2.150453692751374 0.2387066338105111 0  1.323782677156475 0.04897634338873398 0  1.409375 0.03715320121951221 0  1.406484531114799 0.1087852750766809 0  1.134375 0.03715320121951218 0  1.627401732573545 0.04552157221025036 0  0.446875 0.3713289093361426 0  2.045405893604797 0.1105340662939892 0  1.255408269734577 0.1577307500159216 0  2.028125 0.03707597992059326 0  0.04420832937638274 0.128125 0  0.5817551710628505 0.3702615006034757 0  0.1197849154434487 0.2663398672460083 0  1.248258025468107 0.2565907092181813 0  0.1300647302703173 0.0508462728378621 0  0.7738123537510222 0.2761231499240648 0  1.203125 0.0366132337404304 0  0.5444207041612499 0.111205399508622 0  0.8016457771828226 0.1964238426015905 0  2.072662025974815 0.2975086504196739 0  0.4019040438866802 0.2103993403217561 0  0.4677372330974851 0.04827477407630658 0  0.8677218578847617 0.1432970430140788 0  1.058011122005847 0.2758866204059919 0  0.4429405887974043 0.2746184809910084 0  0.5843750000000001 0.03726989681835222 0  0.6318596133730142 0.1128692182767254 0  0.4862628454464408 0.2957029785303028 0  0.7805186758662764 0.3673578380827891 0  1.887722846421017 0.1760882698830035 0  0.3498893058880703 0.256189258793856 0  1.472640588990488 0.1118278026240017 0  1.865937103925594 0.2604137786483804 0
[...]
<PointData  Vectors="f_37"> 
<DataArray  type="Float64"  Name="f_37"  NumberOfComponents="3" format="ascii">-6.1161739748917942e-07 2.0450344951566162e-08 0.0000000000000000e+00  3.7312673011987046e-07 -2.9804217798419198e-08 0.0000000000000000e+00  -5.0452650927323114e-07 -7.2246381807084200e-10 0.0000000000000000e+00  1.0827413548844393e-06 -2.6919750145961662e-09 0.0000000000000000e+00  -9.8668658351971352e-07 1.0603702630804426e-07 0.0000000000000000e+00  -7.7664325028880974e-07 1.2277900960984519e-07 0.0000000000000000e+00  -1.6631394560805835e-06 3.0134394781421237e-07 0.0000000000000000e+00  1.1822370910910190e-06 2.7570042700949056e-07 0.0000000000000000e+00  2.8877084628207113e-06 -4.8332057402495569e-07 0.0000000000000000e+00  -9.6248210794437153e-07 7.3459375685130997e-08 0.0000000000000000e+00  -1.7382006476997314e-06 1.1002472876836345e-06 0.0000000000000000e+00  6.8096920177518539e-07 2.2206915912531132e-06 0.0000000000000000e+00  -3.7514864283456910e-06 -1.2978431551030937e-06 0.0000000000000000e+00  -3.5500120931816043e-06 -8.5650622845236548e-07 0.0000000000000000e+00  -1.9236191542238102e-06 -1.2175778732051242e-07 0.0000000000000000e+00  -1.4371249863329136e-06 -1.0776983937948687e-07 0.0000000000000000e+00  -3.9093821787223740e-06 -3.4480679746580888e-07 0.0000000000000000e+00  -3.0132722358443091e-06 -8.4924826703496946e-08 0.0000000000000000e+00  -1.7927007493539419e-06 -4.7519548824444424e-08 0.0000000000000000e+00  -1.4148772607376495e-06 -3.6403197393253846e-07 0.0000000000000000e+00  -1.0810649043412538e-06 -1.9415494335638012e-07 0.0000000000000000e+00  -1.1793732823815404e-06 -1.2993306032161024e-07 0.0000000000000000e+00  -6.9858703082885322e-07 1.8395190198289713e-07 0.0000000000000000e+00  -3.7209831862240430e-07 1.2285172988284067e-07 0.0000000000000000e+00  -1.2770938912826498e-06 -4.7716007698975970e-09 0.0000000000000000e+00  1.5000025229209095e+00 1.3328318854618724e-08 0.0000000000000000e+00  -4.7315256876362759e-07 2.4675982989965720e-08 0.0000000000000000e+00  -2.2435145323535443e-06 -6.8361330350719198e-08 0.0000000000000000e+00  -9.5655893029002341e-07 6.2514497336229731e-08 0.0000000000000000e+00  -2.6326041411529238e-06 9.1449757344319059e-08 0.0000000000000000e+00  -1.0756975529004487e-06 -2.6514870862145525e-08 0.0000000000000000e+00  -6.2358187235095555e-07 -4.8675614365612145e-08 0.0000000000000000e+00  4.0634383570058806e-07 -1.8477750847732297e-08 0.0000000000000000e+00  1.2688846489976117e-06 1.0628427401656652e-07 0.0000000000000000e+00  1.6234801320143074e-06 1.4772973712093594e-07 0.0000000000000000e+00  2.5462917835821683e-07 9.0388721357642966e-09 0.0000000000000000e+00  -3.2545833771715533e-07 -2.8021786056722675e-08 0.0000000000000000e+00  -5.5149804407256725e-07 -8.4935179109559741e-09 0.0000000000000000e+00  -2.2948304393387636e-06 -1.3784208210540463e-07 0.0000000000000000e+00  1.0435899803451176e+00 -2.0137850882771445e-02 0.0000000000000000e+00  1.1163418044363449e+00 2.7948255389475363e-02 0.0000000000000000e+00  6.1045219883500945e-01 2.6452313647201001e-03 0.0000000000000000e+00  8.9954163144860610e-01 -4.8009361145363106e-03 0.0000000000000000e+00  1.2053194538953216e+00 2.6130056487319045e-02 0.0000000000000000e+00  2.2092370444546275e-01 -4.9897637110587159e-02 0.0000000000000000e+00  1.1968376815841539e+00 -2.7224429726438119e-02 0.0000000000000000e+00  -1.5203489342472518e-06 -1.6413055878684680e-08 0.0000000000000000e+00  -1.6929935874644132e-06 -4.4553101818264940e-08 0.0000000000000000e+00  -9.7235327423451114e-07 -1.3082246918407240e-08 0.0000000000000000e+00  1.2796244831013683e+00 -3.0498711811437333e-03 0.0000000000000000e+00  -2.0133641370077443e-07 5.4999876543845527e-08 0.0000000000000000e+00  -4.7141349077423287e-07 1.0055418208261771e-07 0.0000000000000000e+00  1.3393584366446019e+00 1.3757513004464055e-02 0.0000000000000000e+00  1.6400862796144441e-06 -2.4643240168393103e-08 0.0000000000000000e+00  -6.3354205851616139e-07 2.9918804606548768e-08 0.0000000000000000e+00  7.9936065022045611e-07 -6.3457757708583960e-08 0.0000000000000000e+00  -1.0047278310708693e-06 3.1952673538750846e-08 0.0000000000000000e+00  -4.0489812866008358e-07 1.5740375760827934e-08 0.0000000000000000e+00  -7.0238157683907795e-07 -2.2912818594909292e-08 0.0000000000000000e+00  3.0470617070189974e-07 6.4647742669881461e-08 0.0000000000000000e+00  6.0187301209883863e-07 1.3392137046620314e-07 0.0000000000000000e+00  -2.7606695407139384e-06 1.0963275016024707e-07 0.0000000000000000e+00  1.4482920710279757e-06 -8.3253761415298737e-08 0.0000000000000000e+00  1.3749626481431745e+00 1.9416503919578700e-02 0.0000000000000000e+00  -1.3028902454549532e-06 -1.2833298646126901e-07 0.0000000000000000e+00  1.3520323564310699e+00 1.3110439922325429e-02 0.0000000000000000e+00  1.5748979812702899e+00 -2.0975801746027641e-02 0.0000000000000000e+00  1.4288694822291510e+00 1.4952384891741886e-03 0.0000000000000000e+00  1.5244858239558965e+00 -9.2771576508196441e-03 0.0000000000000000e+00  1.9607631568979982e+00 2.9794017947908473e-02 0.0000000000000000e+00  1.3309944709524852e+00 1.6049924470941616e-03 0.0000000000000000e+00  1.3472318320705443e+00 1.0559813101348290e-02 0.0000000000000000e+00  1.3087505687665248e+00 -2.8168037589974457e-03 0.0000000000000000e+00  1.6629167866994385e+00 -1.0109226562429505e-01 0.0000000000000000e+00  1.5545918703348267e+00 7.7685799331415117e-02 0.0000000000000000e+00  1.8646827848504191e+00 9.6939246821676345e-03 0.0000000000000000e+00  1.1249986007971267e+00 -1.7395034011637598e-07 0.0000000000000000e+00  1.1250027122392336e+00 1.4109617083969393e-08 0.0000000000000000e+00  1.7712574750070698e+00 -1.6587080559441758e-01 0.0000000000000000e+00  1.6476201986062549e+00 1.3878674823685261e-01 0.0000000000000000e+00  7.3611358364817403e-01 1.0429120554585646e-01 0.0000000000000000e+00  1.3291947831534350e+00 -5.7775524683353430e-04 0.0000000000000000e+00  1.4766259175503131e+00 2.8191111998895780e-02 0.0000000000000000e+00  1.1187202989175835e+00 1.7863366497956645e-03 0.0000000000000000e+00  1.3623411439429884e+00 -9.1437829439122936e-04 0.0000000000000000e+00  1.3955543570393660e+00 6.7020746252175250e-03 0.0000000000000000e+00  1.2434988628552532e+00 -2.1288878063557757e-02 0.0000000000000000e+00  1.5480931776337501e+00 -1.2084411713296675e-01 0.0000000000000000e+00  1.2473720208270715e+00 4.3862471822914088e-03 0.0000000000000000e+00  1.2863375198418432e+00 -2.2199972536009340e-04 0.0000000000000000e+00  1.3915930525867704e+00 2.3303020739787335e-03 0.0000000000000000e+00  1.2292718389588593e+00 2.0570945421108842e-03 0.0000000000000000e+00  1.4135167634224954e+00 1.8727671776536995e-03 0.0000000000000000e+00  1.3391812102810368e+00 4.7295559268334163e-03 0.0000000000000000e+00  1.0600041291638511e+00 -3.8020492162742395e-03 0.0000000000000000e+00  1.0914326039009115e+00 1.4490905776720327e-03 0.0000000000000000e+00  -3.3032207976935968e-01 -1.5152056350417763e-02 0.0000000000000000e+00  1.7789562390494320e+00 1.2307616729449973e-01 0.0000000000000000e+00  4.2216161218095782e-01 2.8774962442145734e-02 0.0000000000000000e+00  1.2319105803243822e+00 -1.2274977507211312e-02 0.0000000000000000e+00  1.1818609997320952e+00 2.5547316120196500e-01 0.0000000000000000e+00  1.4113158344584826e+00 -5.5379371238594988e-03 0.0000000000000000e+00  1.0106043065268353e+00 -3.3462351537590695e-02 0.0000000000000000e+00  1.3810658993241280e+00 2.1763086345229862e-01 0.0000000000000000e+00  1.1467922879840313e+00 -4.1014593323845357e-03 0.0000000000000000e+00  8.1789434488836652e-07 -8.8606819463857264e-09 0.0000000000000000e+00  1.8391954831237574e+00 -6.0938643137288105e-02 0.0000000000000000e+00  1.1435622529771450e+00 -2.5636484336089421e-01 0.0000000000000000e+00  1.6207539008409169e+00 -6.2053595464801631e-02 0.0000000000000000e+00  -7.9108928376326236e-07 1.1747660981109815e-08 0.0000000000000000e+00  9.5584966042327635e-01 5.8104381157519306e-04 0.0000000000000000e+00  -2.2610359317848760e-06 2.0150023427938584e-08 0.0000000000000000e+00  -6.9050237231967291e-06 2.7074699795900003e-07 0.0000000000000000e+00  1.1047650152812460e+00 -2.3797819616284740e-02 0.0000000000000000e+00  1.0143926148667727e-06 -2.3235947718905030e-08 0.0000000000000000e+00  1.8258865695069011e+00 7.8427116653879733e-02 0.0000000000000000e+00  1.0267221847808301e+00 -1.0957140854028699e-03 0.0000000000000000e+00  1.7928044200993358e+00 -1.1363917261365891e-01 0.0000000000000000e+00  -2.4335809890204273e-06 6.4693158333081806e-09 0.0000000000000000e+00  1.7978645406178024e+00 -1.4131695652994936e-01 0.0000000000000000e+00  -8.9646051440799473e-07 -1.0495347102089419e-07 0.0000000000000000e+00  1.0665712987469254e+00 2.0871154184319385e-03 0.0000000000000000e+00  1.6020789376530651e+00 1.2828581532278324e-01 0.0000000000000000e+00  -2.7700867638367503e-06 1.5271422153706861e-08 0.0000000000000000e+00  1.7218686484250678e+00 7.4825633365672675e-02 0.0000000000000000e+00  1.3596258104834624e+00 -3.0228766162613580e-01 0.0000000000000000e+00  1.3399794950782296e+00 -1.2281323939963681e-01 0.0000000000000000e+00  1.3729762926827862e+00 1.2467997492086097e-01 0.0000000000000000e+00  -2.7032734771214462e-08 2.4654922395398063e-08 0.0000000000000000e+00  1.2591615859613028e+00 6.7425461757395899e-03 0.0000000000000000e+00  1.0619870434743686e+00 -7.7332700357124681e-03 0.0000000000000000e+00  9.8236815961550953e-07 9.1447546475019882e-08 0.0000000000000000e+00  1.2176197435299936e+00 2.2759078088339484e-02 0.0000000000000000e+00  8.4728122709442488e-01 -2.0940232138868892e-02 0.0000000000000000e+00  1.1133638643953350e+00 3.7634373326659721e-03 0.0000000000000000e+00  1.1389774929904983e+00 2.4239722626961720e-02 0.0000000000000000e+00  1.0340832883210291e+00 -3.1281496868003958e-03 0.0000000000000000e+00  1.9203170237440617e+00 1.8456483154315403e-01 0.0000000000000000e+00  1.4802729104679220e+00 1.9160066764762163e-02 0.0000000000000000e+00  2.9070417130839599e-06 -6.4251391260643102e-08 0.0000000000000000e+00  -6.7106582005839436e-07 7.3985224269366393e-08 0.0000000000000000e+00  -8.0093883202714875e-07 -5.6604861672083581e-08 0.0000000000000000e+00  6.5625203818141331e-01 1.5331758870008018e-08 0.0000000000000000e+00  -1.3864310088806223e-06 -9.0201898537881727e-08 0.0000000000000000e+00  1.0135797453155819e+00 4.8378442413591462e-03 0.0000000000000000e+00  1.6288398291907304e+00 1.2772984156698644e-01 0.0000000000000000e+00  1.3079263867695705e+00 1.1555045449719414e-02 0.0000000000000000e+00  -5.5466722201971963e-07 3.5481637842226761e-09 0.0000000000000000e+00  -3.9166372199848354e-06 5.6942728827855574e-08 0.0000000000000000e+00  8.4887218575793508e-07 6.3932752541520824e-08 0.0000000000000000e+00  -5.9091162371224380e-07 6.3437567735462065e-08 0.0000000000000000e+00  -9.7894053662767316e-07 -4.2454901269531674e-09 0.0000000000000000e+00  -2.5483221264817972e-07 3.7599097017030576e-08 0.0000000000000000e+00  -2.6001960520122851e-06 -1.7048445992992566e-07 0.0000000000000000e+00  -2.9655957794280702e-07 -6.9326878444977804e-08 0.0000000000000000e+00  2.1433702155847608e-07 -4.7063299853856329e-09 0.0000000000000000e+00  3.5201298232924431e-07 1.5070840811105706e-08 0.0000000000000000e+00  1.1670225495435186e-06 -8.6733615103988561e-08 0.0000000000000000e+00  -8.2267602776446105e-07 1.4421875347788887e-07 0.0000000000000000e+00  7.2140106266640172e-07 -7.1129779539004448e-08 0.0000000000000000e+00  -7.5369040529841469e-07 1.3253777856651510e-07 0.0000000000000000e+00  -2.8089410258201002e-06 -1.7162859787682214e-07 0.0000000000000000e+00  -2.6144523542420345e-06 7.6672544720871401e-08 0.0000000000000000e+00  -1.2250149861050516e-06 -2.3479567172756853e-08 0.0000000000000000e+00  -2.9455128751037194e-06 -5.8158876079014309e-08 0.0000000000000000e+00  7.2403061662789592e-01 -4.3479929845253625e-02 0.0000000000000000e+00  8.6139008017019592e-01 2.1682272011797604e-03 0.0000000000000000e+00  8.7158474108036088e-01 3.1236957851015698e-03 0.0000000000000000e+00  9.3940815677925260e-01 1.2578397117145664e-03 0.0000000000000000e+00  1.6561039363705043e+00 -6.9638661697314419e-02 0.0000000000000000e+00  7.1754374302928992e-03 -9.4414904653656092e-03 0.0000000000000000e+00  4.0789794340167405e-02 -3.6385340509044531e-02 0.0000000000000000e+00  1.1773418675462211e+00 3.1438814698587329e-02 0.0000000000000000e+00  9.7599210361132693e-01 -2.8635635054740760e-04 0.0000000000000000e+00  1.0919567227172773e+00 -2.4874881775070550e-03 0.0000000000000000e+00  1.2065732515907859e+00 -2.9765490558941164e-03 0.0000000000000000e+00  8.1181632204483045e-01 3.2799197169010022e-03 0.0000000000000000e+00  1.2124520048089755e+00 1.4773385004446429e-02 0.0000000000000000e+00  1.1801091536540327e+00 -1.2917969947586516e-02 0.0000000000000000e+00  1.3102324179481206e+00 -1.6730661947157107e-03 0.0000000000000000e+00  1.1835544631066266e+00 -1.3110998685763478e-02 0.0000000000000000e+00  8.6693746895581281e-01 -9.4853543179765723e-04 0.0000000000000000e+00  9.2163946140199915e-01 -1.1564789749822254e-05 0.0000000000000000e+00  8.8198752961792926e-01 -2.2731233380102356e-02 0.0000000000000000e+00  8.1704027681155000e-01 4.3615710950935692e-03 0.0000000000000000e+00  2.3172707408452861e-01 5.1365461301283340e-02 0.0000000000000000e+00  1.2289565222602732e+00 -6.9239857881422617e-02 0.0000000000000000e+00  9.4406599289384485e-01 -5.5351556544468480e-02 0.0000000000000000e+00  1.0867080873591302e+00 -1.0816892003500392e-01 0.0000000000000000e+00  1.5538235423943316e+00 -1.6911516609588592e-01 0.0000000000000000e+00  1.2625465498096005e+00 3.0260461566790540e-03 0.0000000000000000e+00  1.5337701726342836e+00 -2.6233185667239697e-02 0.0000000000000000e+00  1.4842748388356368e+00 3.2112602407769864e-02 0.0000000000000000e+00  1.2326219930116153e+00 9.3112348456359136e-03 0.0000000000000000e+00  1.4288370495641907e+00 -1.0780921127360202e-01 0.0000000000000000e+00  1.4822187578067059e+00 -1.0236968619146694e-01 0.0000000000000000e+00  9.9245484935184691e-01 1.5267174828415241e-02 0.0000000000000000e+00  8.0048522460246047e-02 -5.4802128952959939e-02 0.0000000000000000e+00  2.8538088223481428e-01 2.3834433639437769e-02 0.0000000000000000e+00  1.3717511028095926e+00 -4.3748970461300373e-03 0.0000000000000000e+00  9.4693845561718992e-01 8.0328322513354925e-03 0.0000000000000000e+00  1.2017840372765827e+00 -6.1890767460352353e-03 0.0000000000000000e+00  1.3910672175918779e+00 -1.7128781412585330e-02 0.0000000000000000e+00  7.8769736010564384e-01 1.6303672603145844e-02 0.0000000000000000e+00  8.9445693973196450e-01 1.4244644445658243e-03 0.0000000000000000e+00  1.4007066329892306e+00 -5.8972080382901273e-03 0.0000000000000000e+00  1.0353423347002040e+00 7.0376571999094722e-02 0.0000000000000000e+00  8.7393414498138433e-01 3.7706057464119351e-03 0.0000000000000000e+00  6.5624905574551384e-01 8.5638244454078641e-08 0.0000000000000000e+00  1.0807653881006101e+00 5.3715761086055976e-02 0.0000000000000000e+00  1.5678732483784128e+00 3.7327022021656983e-02 0.0000000000000000e+00  1.5937101857931348e+00 -5.2398940310585167e-02 0.0000000000000000e+00  1.0427536701148428e+00 1.2029567351998167e-01 0.0000000000000000e+00  1.0728414609785106e+00 7.0827994187975585e-02 0.0000000000000000e+00  7.4934279404136872e-01 6.1250604242590349e-03 0.0000000000000000e+00  8.0439517157008111e-01 8.8639333935229894e-02 0.0000000000000000e+00  1.4953464544601522e+00 -1.8250920584736829e-03 0.0000000000000000e+00  1.6528352950021428e+00 1.6704420495195238e-01 0.0000000000000000e+00  1.3893491386225532e+00 -1.8692006204816498e-02 0.0000000000000000e+00  1.5143277051844504e+00 -1.2407621930742187e-02 0.0000000000000000e+00  1.6077564793683592e+00 -1.7201582298734461e-02 0.0000000000000000e+00  1.5001068081538547e+00 -1.3700995075033773e-01 0.0000000000000000e+00  1.1295328191738467e+00 1.6162875037039701e-02 0.0000000000000000e+00  1.3572484223710335e+00 -1.2705153063285348e-04 0.0000000000000000e+00  1.3018014973916299e+00 1.6850427106726865e-02 0.0000000000000000e+00  7.9610317398070762e-01 6.2212088413176360e-03 0.0000000000000000e+00  1.5818989284859646e+00 6.0008009679625857e-02 0.0000000000000000e+00  9.4149881281912640e-01 9.3612899529861071e-02 0.0000000000000000e+00  1.3527713609988901e+00 2.2588175478385837e-03 0.0000000000000000e+00  1.2233623393530042e+00 1.6058338200326153e-01 0.0000000000000000e+00  8.8078756501786326e-01 -1.8520554810264594e-03 0.0000000000000000e+00  1.1911106074994198e+00 5.5716803257102880e-04 0.0000000000000000e+00  1.3609783018258517e+00 9.6647275805674573e-02 0.0000000000000000e+00  1.5160677341724627e+00 1.7509822825413437e-02 0.0000000000000000e+00  1.3289257551450677e+00 8.5513369830802523e-03 0.0000000000000000e+00  1.4348747018199748e+00 3.9334501886095202e-03 0.0000000000000000e+00  1.3331199864650412e+00 -1.7863613821985650e-02 0.0000000000000000e+00  1.4595604478706934e+00 4.8250861732957494e-03 0.0000000000000000e+00  6.6466260671233846e-01 -2.0616664966916346e-03 0.0000000000000000e+00  6.2964719403667135e-01 -5.4599519168833186e-03 0.0000000000000000e+00  7.4097679298501418e-01 5.7009890655224911e-03 0.0000000000000000e+00  8.3557510099128773e-01 1.6140560457461595e-03 0.0000000000000000e+00  1.3294825760473592e+00 1.5486044198102745e-03 0.0000000000000000e+00  7.2326332887291089e-01 -8.3498343638634088e-04 0.0000000000000000e+00  1.3015791640877699e+00 1.8986535756039011e-02 0.0000000000000000e+00  1.4196329461817201e+00 -7.2346119062517318e-03 0.0000000000000000e+00  7.9590240408011859e-01 -1.8154527560636114e-02 0.0000000000000000e+00  8.2178564685523803e-01 4.2715127610527939e-02 0.0000000000000000e+00  1.3408330385349763e+00 -1.8306025084400525e-02 0.0000000000000000e+00  1.3891310278097317e+00 8.9608097965916955e-03 0.0000000000000000e+00  5.4512987867516682e-01 2.2073016362032192e-04 0.0000000000000000e+00  1.3556924108491040e+00 -1.4735730168610101e-02 0.0000000000000000e+00  7.5990418626744338e-01 -1.1059420024874565e-02 0.0000000000000000e+00  7.8285488042429052e-01 -2.1161086209282578e-03 0.0000000000000000e+00  7.3881075896270620e-01 -7.9178188455539464e-02 0.0000000000000000e+00  1.1995439513173536e+00 -5.2303480003657296e-02 0.0000000000000000e+00  6.4977974883594580e-01 1.0125989005770894e-03 0.0000000000000000e+00  1.5233470055233453e+00 1.9487201973812728e-02 0.0000000000000000e+00  1.5283895030956454e+00 4.7609651210557657e-01 0.0000000000000000e+00  1.0046159843901772e+00 1.8218404245428987e-01 0.0000000000000000e+00  7.5109734945047779e-01 7.4554075888375818e-04 0.0000000000000000e+00  1.3189446143804286e+00 -1.2562660672474693e-01 0.0000000000000000e+00  1.4489061265649601e+00 -5.4608445279251605e-01 0.0000000000000000e+00  6.8173131316873481e-01 4.9466710349640305e-03 0.0000000000000000e+00  7.7813914970924691e-01 2.5221105796800281e-03 0.0000000000000000e+00  1.4895999669866984e+00 -4.0380653013645127e-03 0.0000000000000000e+00  3.8053261658390103e-01 6.8700012548344971e-02 0.0000000000000000e+00  1.4062539963276379e+00 1.2116003435780606e-07 0.0000000000000000e+00  1.3503200725089486e+00 5.8278115036628497e-03 0.0000000000000000e+00  7.4244750834757967e-01 -5.1522271954082587e-04 0.0000000000000000e+00  1.4062505954229871e+00 3.4678538760094896e-08 0.0000000000000000e+00  7.3903950951273290e-01 2.4216292452576308e-03 0.0000000000000000e+00  1.8372577105167576e+00 -3.2979184851526422e-01 0.0000000000000000e+00  1.4602235686114178e+00 -1.3147440282387437e-03 0.0000000000000000e+00  7.1442254227735891e-01 9.8567538392127590e-02 0.0000000000000000e+00  1.2667571846807539e+00 1.0412055255921553e-02 0.0000000000000000e+00  6.8791140287484465e-01 -6.6095810503406785e-03 0.0000000000000000e+00  5.2376899721295356e-01 -3.7734585876484763e-03 0.0000000000000000e+00  1.3915826205122248e+00 -3.0441362534343055e-03 0.0000000000000000e+00  4.8993477354231740e-01 -2.5958562681517054e-03 0.0000000000000000e+00  6.5658865905986119e-01 -2.4491110515892705e-03 0.0000000000000000e+00  1.3074269240522893e+00 