<?xml version="1.0"?>
<VTKFile type="UnstructuredGrid"  version="0.1"  >
<UnstructuredGrid>
<Piece  NumberOfPoints="2426" NumberOfCells="4534">
<Points>
<DataArray  type="Float64"  NumberOfComponents="3"  format="ascii">0 0.41 0  0 0 0  2.2 0 0  2.2 0.41 0  0.2404508497187474 0.2293892626146237 0  0.25 0.2 0  0.2404508497187474 0.1706107373853764 0  0.2154508497187474 0.1524471741852423 0  0.1845491502812526 0.1524471741852423 0  0.1595491502812526 0.1706107373853764 0  0.15 0.2 0  0.1595491502812526 0.2293892626146237 0  0.1845491502812527 0.2475528258147577 0  0.2154508497187474 0.2475528258147577 0  0.5404508497187474 0.2293892626146237 0  0.55 0.2 0  0.5404508497187474 0.1706107373853764 0  0.5154508497187473 0.1524471741852423 0  0.4845491502812526 0.1524471741852423 0  0.4595491502812526 0.1706107373853764 0  0.45 0.2 0  0.4595491502812526 0.2293892626146237 0  0.4845491502812526 0.2475528258147577 0  0.5154508497187473 0.2475528258147577 0  1.1 0 0  0 0.205 0  1.1 0.41 0  0.55 0 0  0.55 0.41 0  0.275 0 0  0.275 0.41 0  1.65 0.41 0  1.65 0 0  1.375 0 0  1.375 0.41 0  1.925 0 0  1.925 0.41 0  0.8250000000000001 0.41 0  0.8250000000000001 0 0  1.5125 0.205 0  1.7875 0.205 0  0.9625000000000001 0.205 0  1.2375 0.205 0  2.2 0.205 0  0.7560964076246335 0.2151713709677419 0  1.99375 0.2152743902439024 0  2.0625 0 0  0.6875 0 0  2.0625 0.41 0  2.2 0.3075 0  0.6875 0.41 0  1.7875 0.41 0  1.375 0.1486128048780488 0  1.5125 0 0  1.7875 0 0  1.5125 0.41 0  0.9625000000000001 0 0  0.9625000000000001 0.41 0  0.4125 0 0  0.1375 0 0  0.1375 0.41 0  0.4125 0.41 0  1.2375 0 0  1.1 0.1486128048780487 0  1.2375 0.41 0  1.65 0.1486128048780487 0  1.126715909090909 0.2793064024390244 0  1.676715909090909 0.2793064024390244 0  1.348284090909091 0.2793064024390244 0  0.34375 0.3032389320646208 0  1.894702181800738 0.1282910975492754 0  2.092797818199262 0.1282910975492754 0  1.85625 0.3075 0  0.8630851210521902 0.286932093388664 0  0.89375 0.1025 0  0.35 0.1090282786671641 0  0 0.3075 0  0 0.1025 0  0.6526217841291382 0.288229645480046 0  0.7562500000000001 0.09660248895515888 0  0.6568633732316684 0.1557582854763441 0  2.099172119769978 0.25625 0  1.002356446954348 0.1010393851523063 0  1.99375 0.08395950269330846 0  1.459960956013612 0.3075 0  1.569025960719943 0.2986889805672169 0  1.03125 0.3278689922742084 0  0.75625 0.3247156761655783 0  1.959375 0.3126371951219512 0  1.749222215368287 0.1025 0  1.275777784631713 0.1025 0  2.2 0.1025 0  1.225938124459196 0.3075 0  1.550777784631713 0.1025 0  1.44375 0.07430640243902442 0  1.16875 0.07430640243902437 0  0.3528655045338512 0.2063263890916129 0  0.5890337614812103 0.08775733857679162 0  0.8504912436891263 0.190072835691683 0  1.899250267340833 0.2229966846119207 0  0.1020898364287272 0.3140258291809757 0  1.766482954545455 0.2934032012195123 0  1.051658316544432 0.2265720188842194 0  0.2 0.3400647632937836 0  1.421109702350723 0.2261157654379721 0  0.4812500000000001 0.41 0  0.4324401666997539 0.3216425986889796 0  0.098916018031319 0.09171660955420841 0  0.9508742791313441 0.2921736960864468 0  2.13125 0 0  2.118919042110979 0.3422084711244843 0  1.30625 0.41 0  0.20625 0 0  1.597888256393107 0.2173787389261347 0  0.4812500000000001 0 0  0.4324082967851086 0.08384041677422771 0  1.829299675393195 0.07400700849299596 0  0.568219932524165 0.3212274660843853 0  1.71875 0.41 0  0.268005226542646 0.08512186835670006 0  1.16875 0.41 0  2.038220665644273 0.332420740103091 0  0.6678017527842831 0.07701763866051195 0  0.89375 0.41 0  0.5111435174287687 0.07335351331957608 0  0.176193934632343 0.0734896648625108 0  0.07390688010811153 0.1697064032433452 0  0.05452951551825875 0.25625 0  0.61875 0.41 0  1.452769549894695 0.1548122580621249 0  1.369219062229598 0.07430640243902442 0  1.30625 0 0  1.720943423819132 0.1714577452753128 0  1.157188124459196 0.205 0  1.094219062229598 0.07430640243902437 0  1.304056576180868 0.1714577452753128 0  1.67579304192913 0.07430640243902437 0  0.2672907219039591 0.3037570723459566 0  1.209670467133757 0.1362100266964769 0  1.58125 0 0  1.03125 0 0  0.06875000000000001 0.41 0  0 0.35875 0  1.58125 0.41 0  1.631724228912893 0.3381867502687533 0  0.8240147050827157 0.1225233169495944 0  1.825608881788174 0.14499488549201 0  1.85625 0 0  1.44375 0 0  1.44375 0.41 0  1.85625 0.41 0  2.13125 0.41 0  0.7562500000000001 0.41 0  0.7562500000000001 0 0  0.89375 0 0  0.34375 0 0  0.34375 0.41 0  0.20625 0.41 0  0.06875000000000001 0 0  1.16875 0 0  1.03125 0.41 0  0.61875 0 0  1.71875 0 0  1.99375 0 0  1.99375 0.41 0  0.3972301426712326 0.2593842555611471 0  1.340625 0.3489494290853124 0  1.134375 0.3489494290853123 0  1.700180620188976 0.3438659752031281 0  0.5003922072260507 0.341765274319271 0  0.6212513815748759 0.2209216137134851 0  0.6885607720119526 0.215393731583638 0  1.033412357328477 0.1612902025713047 0  2.135782184673599 0.07126652247502523 0  1.668441847249787 0.2129203728327609 0  1.295782514339747 0.2378437748815763 0  1.409375 0.3520314716057996 0  2.129248544730567 0.1906135162504124 0  2.060771381434487 0.1989445750470348 0  2.013252586573865 0.1496169464686054 0  1.942766402200229 0.1734448904596831 0  1.895522487186454 0.06076163953489683 0  2.069553871656643 0.06605731020975725 0  0.9281250000000001 0.3539050257418612 0  1.274680914880868 0.3520219391081363 0  0.3030138498135347 0.2488370856812789 0  0.8223773249563684 0.341761430177996 0  0.9018164060227267 0.2326477848736739 0  0.8143027982392851 0.2440265179987191 0  0.7225087161029304 0.2699907246386231 0  1.614713220494657 0.09473434380863296 0  0.378125 0.3566194660323104 0  0.309375 0.3566194660323104 0  1.72990325744076 0.2380068107952482 0  0.6915936999299305 0.3429472631234433 0  0.6268087624932918 0.3466455500035671 0  1.356580098625191 0.2120393231351682 0  0.3060160055995138 0.1590148921620778 0  0.3954648733249218 0.156380553890791 0  2.034370752044885 0.2668681600792073 0  1.51768709249349 0.3426260931494756 0  1.561883724969884 0.1650446847858835 0  1.197344062229598 0.2523725417393646 0  0.9281250000000001 0.05124999999999999 0  1.804085235518364 0.3468178408964637 0  1.817887819205233 0.2589243285818559 0  0.9107805776841645 0.1653834539923287 0  1.905897727272727 0.3485060975609756 0  0 0.05125 0  0.844212276491354 0.0614201194265309 0  0.378125 0.05244637078450034 0  1.008571329007178 0.2705955969954818 0  0.7724048032149464 0.1559079561351474 0  0.7203054377831548 0.04941826955193545 0  1.192836486056382 0.3562350748565544 0  0.5967108020713719 0.1479294686523888 0  1.28257088594801 0.2944411014911587 0  0.7041890234548132 0.1222025174424443 0  1.474860187679412 0.2504218616229368 0  1.406767003493824 0.2829282258560709 0  0.3201325899091991 0.05890121548989159 0  0.5979220912872258 0.2727591995766724 0  1.845656689180403 0.1998310418452388 0  2.144958525570388 0.2909790873294231 0  2.2 0.15375 0  1.57794966442982 0.3540357145964566 0  0.9483181579620558 0.1214693369582054 0  0.0496154796471391 0.333125 0  1.508991196088596 0.1421783375065625 0  0.09776612425612034 0.2204896805326566 0  1.50436820029908 0.06143401634903343 0  1.223857000523521 0.0823554862453532 0  0.2531953886959507 0.3582003209055908 0  1.153316824384777 0.1289850171317837 0  2.148922302309752 0.1258841779285271 0  1.621993280276081 0.2841214267927899 0  1.550118654119087 0.2461998729100966 0  1.327182649291491 0.1216967252533594 0  1.753125 0.04556020050186112 0  1.271875 0.04556020050186116 0  0.9824282234771738 0.05051969257615314 0  1.039510847866381 0.05683351822678641 0  1.94956388244759 0.1180512551534177 0  1.949997712993411 0.04965831614304109 0  1.771961817615021 0.1530278789497521 0  1.909246823951428 0.2812757146784527 0  1.101974016627944 0.2038045618205013 0  0.7906250000000001 0.0444674049654372 0  1.948575539857022 0.2445328248721197 0  1.697271520964565 0.1233917627620729 0  1.065625 0.3689344961371042 0  1.085849084308977 0.3170853572226867 0  0.9840604787624379 0.3582077516409966 0  1.577403511714593 0.05463601888079143 0  0.05622663515370135 0.05493816910862376 0  0.8762396958822678 0.3392249777398821 0  1.751571320346033 0.3651102912045228 0  1.055327852410105 0.111864799513911 0  0.1583785085108421 0.2994699345738728 0  0.1455283439499995 0.3542795598723423 0  2.2 0.35875 0  0.225705107073232 0.05084786997482401 0  0.1455852234589313 0.1166494778469164 0  1.466879772203159 0.3611261772912453 0  1.990280163552011 0.3564754268533217 0  1.17471064520912 0.2990917256188288 0  0.7221925551074015 0.1739659241003985 0  0 0.25625 0  2.2 0.25625 0  2.2 0.05125 0  0 0.15375 0  1.853978576207987 0.35875 0  0.21965520498276 0.1015543880164422 0  1.515638456102889 0.2882700110184686 0  0.09048297387599738 0.3637717362208066 0  2.150453692751374 0.2387066338105111 0  1.323782677156475 0.04897634338873398 0  1.409375 0.03715320121951221 0  1.406484531114799 0.1087852750766809 0  1.134375 0.03715320121951218 0  1.627401732573545 0.04552157221025036 0  0.446875 0.3713289093361426 0  2.045405893604797 0.1105340662939892 0  1.255408269734577 0.1577307500159216 0  2.028125 0.03707597992059326 0  0.04420832937638274 0.128125 0  0.5817551710628505 0.3702615006034757 0  0.1197849154434487 0.2663398672460083 0  1.248258025468107 0.2565907092181813 0  0.1300647302703173 0.0508462728378621 0  0.7738123537510222 0.2761231499240648 0  1.203125 0.0366132337404304 0  0.5444207041612499 0.111205399508622 0  0.8016457771828226 0.1964238426015905 0  2.072662025974815 0.2975086504196739 0  0.4019040438866802 0.2103993403217561 0  0.4677372330974851 0.04827477407630658 0  0.8677218578847617 0.1432970430140788 0  1.058011122005847 0.2758866204059919 0  0.4429405887974043 0.2746184809910084 0  0.5843750000000001 0.03726989681835222 0  0.6318596133730142 0.1128692182767254 0  0.4862628454464408 0.2957029785303028 0  0.7805186758662764 0.3673578380827891 0  1.887722846421017 0.1760882698830035 0  0.3498893058880703 0.256189258793856 0  1.472640588990488 0.1118278026240017 0  1.865937103925594 0.2604137786483804 0
[...]
<PointData  Vectors="f_37"> 
<DataArray  type="Float64"  Name="f_37"  NumberOfComponents="3" format="ascii">-5.9704698872402401e-07 2.0958315865712644e-08 0.0000000000000000e+00  3.5418284801435760e-07 -2.8677344295536535e-08 0.0000000000000000e+00  -3.5737569423956155e-07 -4.0375377819772716e-10 0.0000000000000000e+00  1.4539300683108475e-06 -3.2208232551973973e-09 0.0000000000000000e+00  -9.6176254428061473e-07 6.1157060468832257e-07 0.0000000000000000e+00  -9.1680934456474764e-07 9.4431454086387516e-07 0.0000000000000000e+00  -1.9042603070318999e-06 7.1799770461808871e-07 0.0000000000000000e+00  1.2226063484676779e-06 3.7676073045755380e-07 0.0000000000000000e+00  2.8665172676460300e-06 -5.8036358291361462e-07 0.0000000000000000e+00  -1.2475369200619050e-06 2.4831655512554197e-07 0.0000000000000000e+00  -1.6939291351880967e-06 1.3846153638210724e-06 0.0000000000000000e+00  1.5740646538199994e-06 2.2351454558029688e-06 0.0000000000000000e+00  -3.0199445786781526e-06 -1.7469242181870805e-06 0.0000000000000000e+00  -3.7921929466868750e-06 -1.2423570082453152e-06 0.0000000000000000e+00  -3.8446258018464353e-07 -2.1067064087492977e-06 0.0000000000000000e+00  -1.2191682244409451e-06 -5.0949241768860699e-06 0.0000000000000000e+00  -5.4865270798118451e-06 -1.5811702360612613e-06 0.0000000000000000e+00  -2.2035401679225500e-06 8.7867292814330209e-07 0.0000000000000000e+00  1.1147822526674369e-06 7.3101661844954517e-08 0.0000000000000000e+00  -2.3082830553917795e-06 -3.1715015818603133e-06 0.0000000000000000e+00  -2.7010758163048944e-09 -4.4571500005970144e-06 0.0000000000000000e+00  3.1416457230109658e-06 -3.0425066369835620e-06 0.0000000000000000e+00  -9.6639270067853180e-07 -1.4465197394389325e-07 0.0000000000000000e+00  -8.6644332419077798e-07 -3.8551059252665792e-07 0.0000000000000000e+00  -4.2189414245061789e-07 -4.5223203396131123e-07 0.0000000000000000e+00  1.5000025730893956e+00 1.1167982791936354e-07 0.0000000000000000e+00  -4.3331993869396217e-06 -3.4045631825725069e-07 0.0000000000000000e+00  -2.3407279856778750e-06 9.8711548533908814e-08 0.0000000000000000e+00  -6.9594422393833504e-07 1.3027166263541421e-07 0.0000000000000000e+00  -2.6359629619966703e-06 7.1310124001216598e-08 0.0000000000000000e+00  -1.2828419533276042e-06 -1.4194666556157103e-08 0.0000000000000000e+00  5.7673996314595747e-07 6.6830964288332301e-09 0.0000000000000000e+00  2.1664835254779582e-07 -3.2319671149614493e-09 0.0000000000000000e+00  -1.1113722220077329e-07 1.6362147759601851e-07 0.0000000000000000e+00  -1.4695925745036168e-06 -4.5301848532363517e-07 0.0000000000000000e+00  6.0013503411985284e-07 4.5073498186072460e-10 0.0000000000000000e+00  -7.7827746243178734e-07 -4.4218162641760530e-10 0.0000000000000000e+00  -1.9695182749536142e-06 -1.1781987349529838e-07 0.0000000000000000e+00  6.0396559229656251e-07 -6.0463687522843434e-07 0.0000000000000000e+00  1.1468783759881200e+00 -3.1196308533121965e-03 0.0000000000000000e+00  1.1999389155362346e+00 -1.0140200909638214e-03 0.0000000000000000e+00  6.0549739561298555e-01 -2.2174916772578775e-02 0.0000000000000000e+00  9.2307483562061088e-01 6.2838205820809493e-03 0.0000000000000000e+00  1.1998765346692646e+00 -2.4981067213267213e-05 0.0000000000000000e+00  2.2653463322270415e-01 -7.8301607927024161e-02 0.0000000000000000e+00  1.2000231600722802e+00 -5.1581778076429607e-05 0.0000000000000000e+00  -2.3498286176949946e-06 2.0641039037045457e-09 0.0000000000000000e+00  -3.8211929213706421e-06 -4.2179307384113982e-08 0.0000000000000000e+00  -9.8938742170783686e-07 1.6972113809164939e-09 0.0000000000000000e+00  1.1767987338660424e+00 1.6542169236967127e-05 0.0000000000000000e+00  1.1391055408018073e-06 1.5984280414014646e-09 0.0000000000000000e+00  -7.3219650969632831e-07 -1.8821937895239508e-09 0.0000000000000000e+00  1.1920729105466887e+00 -3.5642315366107066e-03 0.0000000000000000e+00  2.8388822770133399e-06 1.1158206289517350e-08 0.0000000000000000e+00  -4.3035907206824790e-07 1.5252598707901718e-10 0.0000000000000000e+00  2.8690532990423638e-07 3.6377958312088611e-08 0.0000000000000000e+00  -1.7025754995028070e-06 3.2540148078554599e-07 0.0000000000000000e+00  2.8066347721677878e-06 2.2167478048655965e-07 0.0000000000000000e+00  2.3269328332547643e-07 -4.4510806199952482e-08 0.0000000000000000e+00  3.0875148951144189e-07 5.4792159809160330e-08 0.0000000000000000e+00  6.4131714160729672e-07 1.3332148401020226e-07 0.0000000000000000e+00  -3.3715588011724864e-06 7.7954600172119838e-08 0.0000000000000000e+00  2.1830877939536164e-06 2.1434662080614003e-08 0.0000000000000000e+00  1.3767797824872228e+00 5.7423275359815312e-02 0.0000000000000000e+00  3.6926056769832662e-06 4.7151682509657547e-07 0.0000000000000000e+00  1.1948716700208604e+00 5.6335242682523361e-04 0.0000000000000000e+00  1.5495538696148927e+00 -1.0365324884001844e-02 0.0000000000000000e+00  1.2003148079632351e+00 -4.3565286720093190e-03 0.0000000000000000e+00  1.3495911919073744e+00 1.4175201503168854e-02 0.0000000000000000e+00  1.9627492985670212e+00 3.6803462965762944e-02 0.0000000000000000e+00  1.1955005892487238e+00 -1.6522168758174337e-04 0.0000000000000000e+00  1.1956826285696185e+00 -9.3728570192261524e-05 0.0000000000000000e+00  1.1771156718486191e+00 -6.0174258330111897e-05 0.0000000000000000e+00  1.6618528718524730e+00 -8.1090375977210999e-02 0.0000000000000000e+00  1.5495559386209581e+00 5.3287424043648009e-02 0.0000000000000000e+00  1.8677277317966108e+00 6.5575406922745369e-03 0.0000000000000000e+00  1.1249986084884065e+00 -1.5331831939775221e-07 0.0000000000000000e+00  1.1250028274115629e+00 6.1059704226049248e-08 0.0000000000000000e+00  1.7836437776394585e+00 -1.8721214531201202e-01 0.0000000000000000e+00  1.6642693280291359e+00 1.6055222749531486e-01 0.0000000000000000e+00  6.9970994020695154e-01 8.5827337421984187e-02 0.0000000000000000e+00  1.1994517695926934e+00 -7.2005086514901484e-06 0.0000000000000000e+00  1.4935182249187569e+00 -1.3300500771765828e-02 0.0000000000000000e+00  1.1352393845510906e+00 -2.6117252962167750e-06 0.0000000000000000e+00  1.2168215060944074e+00 5.5992139038871288e-03 0.0000000000000000e+00  1.2053442905936793e+00 -6.8068523769764496e-03 0.0000000000000000e+00  1.2726336968456784e+00 1.2598533353967071e-02 0.0000000000000000e+00  1.5317367750560302e+00 -1.1510913193182372e-01 0.0000000000000000e+00  1.1691316080371117e+00 3.5743303961672008e-05 0.0000000000000000e+00  1.1758029451013843e+00 -4.4775926304642464e-04 0.0000000000000000e+00  1.2973880446896153e+00 -3.4470082244900481e-02 0.0000000000000000e+00  1.1765095200628908e+00 -1.5020557888277227e-04 0.0000000000000000e+00  1.3828382403469239e+00 -1.7638612046981333e-02 0.0000000000000000e+00  1.1832373001050402e+00 4.1487170626991390e-03 0.0000000000000000e+00  1.0989542301265915e+00 -8.2714562544518883e-03 0.0000000000000000e+00  1.1089347404161860e+00 -7.0604324954495262e-03 0.0000000000000000e+00  -3.7593288919894430e-01 -3.5868691199577488e-02 0.0000000000000000e+00  1.7745150916313841e+00 1.1830980420580192e-01 0.0000000000000000e+00  4.6564543230711469e-01 5.5839386657853027e-02 0.0000000000000000e+00  1.2000701635460873e+00 -1.9612756206296427e-04 0.0000000000000000e+00  1.1819777191110963e+00 2.5586546721990205e-01 0.0000000000000000e+00  1.1917024575898405e+00 -7.3746404359550011e-04 0.0000000000000000e+00  8.8366742311878721e-01 -3.0117719275202150e-02 0.0000000000000000e+00  1.3819626504705751e+00 2.1887726394496812e-01 0.0000000000000000e+00  1.1524425531838913e+00 -2.3332003167554505e-02 0.0000000000000000e+00  4.9669767515741851e-07 9.8535763359083859e-10 0.0000000000000000e+00  1.8541998681193528e+00 -5.7580990865859244e-02 0.0000000000000000e+00  1.1434510768421422e+00 -2.5645094129154022e-01 0.0000000000000000e+00  1.6187960128182068e+00 -4.1623986648356467e-02 0.0000000000000000e+00  -1.1238443254478804e-06 1.1375360232671287e-09 0.0000000000000000e+00  1.0590640785156267e+00 1.0201499903034250e-04 0.0000000000000000e+00  -1.3283210939488182e-06 -4.2721495240637458e-07 0.0000000000000000e+00  -6.7700984144759073e-06 2.5736489893407660e-07 0.0000000000000000e+00  1.1876177618891757e+00 -1.1499672074118674e-02 0.0000000000000000e+00  1.9972571552359157e-06 4.9789847846802818e-08 0.0000000000000000e+00  1.8266313727906103e+00 8.6621275713045814e-02 0.0000000000000000e+00  1.0938242908923919e+00 -9.4211223332001977e-05 0.0000000000000000e+00  1.8043022225597229e+00 -1.2800573815488936e-01 0.0000000000000000e+00  -2.9642190317880943e-06 1.5833125844814936e-09 0.0000000000000000e+00  1.7994437879228373e+00 -1.4464185491534823e-01 0.0000000000000000e+00  -5.7620764984000955e-07 5.2626618498851719e-07 0.0000000000000000e+00  1.1108839365597405e+00 7.4147705612040443e-05 0.0000000000000000e+00  1.6107897927046388e+00 1.3010605180149151e-01 0.0000000000000000e+00  -1.5380253497495156e-06 5.0968559560119298e-07 0.0000000000000000e+00  1.7165628550716250e+00 7.4793931116168388e-02 0.0000000000000000e+00  1.3597082771020776e+00 -3.0320931446808719e-01 0.0000000000000000e+00  1.3398925070042436e+00 -1.2261217956728215e-01 0.0000000000000000e+00  1.3729813530601696e+00 1.2493097404774466e-01 0.0000000000000000e+00  9.8054369373438621e-07 1.0589369028858349e-07 0.0000000000000000e+00  1.1824630481093779e+00 1.4102319510110674e-02 0.0000000000000000e+00  1.1012667778212604e+00 -3.0343376809392295e-02 0.0000000000000000e+00  -9.6000260907828973e-07 2.9500080892549414e-07 0.0000000000000000e+00  1.1983906841543612e+00 -1.4667646713612380e-03 0.0000000000000000e+00  7.6850336304699451e-01 5.8932321877847714e-02 0.0000000000000000e+00  1.1460962577138856e+00 1.5728277115577393e-03 0.0000000000000000e+00  1.0441674938597181e+00 -6.1900512537489466e-03 0.0000000000000000e+00  1.0947560011186435e+00 2.8932515201048769e-04 0.0000000000000000e+00  1.9210756069762496e+00 1.8845564221354821e-01 0.0000000000000000e+00  1.3704915143110137e+00 2.5994655018929200e-02 0.0000000000000000e+00  4.0538024370792504e-06 -2.0660705506547852e-08 0.0000000000000000e+00  -3.1636176566525760e-06 1.7245737573916106e-07 0.0000000000000000e+00  -7.6487054630652827e-07 -5.7880512980589096e-08 0.0000000000000000e+00  6.5625205718823265e-01 1.8087472519884431e-08 0.0000000000000000e+00  -1.2840543482445936e-06 1.9937203119274746e-08 0.0000000000000000e+00  1.0868826185801601e+00 -2.1161598916001338e-03 0.0000000000000000e+00  1.6479460632836607e+00 1.4975902012179548e-01 0.0000000000000000e+00  1.1983573184409653e+00 -4.1100710602105865e-04 0.0000000000000000e+00  -4.3833302396940903e-07 -6.9702336905950625e-11 0.0000000000000000e+00  -5.3754511139152628e-06 3.5187813764919344e-08 0.0000000000000000e+00  -2.3264528503519620e-06 -8.6541319878463388e-08 0.0000000000000000e+00  -1.7101556471170607e-06 3.8052090925835256e-09 0.0000000000000000e+00  -1.1040035999321817e-06 4.1667690715018561e-10 0.0000000000000000e+00  -3.2066112913897109e-07 -5.1950809492142138e-08 0.0000000000000000e+00  -3.0218187680248934e-06 -3.8946320804429155e-07 0.0000000000000000e+00  3.3339713026242701e-06 -1.5313432932910317e-07 0.0000000000000000e+00  5.5160566098086302e-07 -6.8764032771928286e-08 0.0000000000000000e+00  -1.1002914765514924e-07 7.1075361321565066e-08 0.0000000000000000e+00  1.0050153663738818e-06 -9.3206701185114679e-08 0.0000000000000000e+00  -8.3839649284254322e-07 1.4314319339703763e-07 0.0000000000000000e+00  4.4159237684956872e-06 -4.3940687540089681e-07 0.0000000000000000e+00  -1.9439147500605036e-06 -5.9607221686086066e-07 0.0000000000000000e+00  -4.2419076216124196e-06 -7.8926924505426907e-08 0.0000000000000000e+00  -3.0301235008853656e-06 3.4554025052256071e-09 0.0000000000000000e+00  -1.3738081256962323e-06 -1.5086390451905920e-09 0.0000000000000000e+00  -4.1739882644152680e-06 3.5482392168460724e-09 0.0000000000000000e+00  7.0654135218643610e-01 -3.5216461139376661e-02 0.0000000000000000e+00  9.5274956569307812e-01 4.1949616679963275e-02 0.0000000000000000e+00  9.5467407269669624e-01 6.1016834335076301e-03 0.0000000000000000e+00  1.0492745161319907e+00 -6.8471562358364633e-04 0.0000000000000000e+00  1.6718497078222236e+00 -7.6271523739461417e-02 0.0000000000000000e+00  2.9947504159630076e-02 -4.8862682770073138e-03 0.0000000000000000e+00  6.7195506139251931e-02 -6.9337615754486256e-02 0.0000000000000000e+00  1.1630413770460983e+00 -3.0306261437595700e-04 0.0000000000000000e+00  1.0794228821243250e+00 -1.0860717849413471e-04 0.0000000000000000e+00  1.1973263119727713e+00 -5.2810419320807990e-03 0.0000000000000000e+00  1.2819114507582325e+00 -5.9240905026587458e-02 0.0000000000000000e+00  9.6931633413020712e-01 2.1117073026049836e-02 0.0000000000000000e+00  1.1999292734372440e+00 -6.1050552973884517e-05 0.0000000000000000e+00  1.1999678055058236e+00 -4.8585391405173080e-05 0.0000000000000000e+00  1.1991214838302009e+00 -4.2729109802154901e-05 0.0000000000000000e+00  1.1998814206894415e+00 -1.2189514011144664e-04 0.0000000000000000e+00  1.0083110169565628e+00 1.7499403925571010e-05 0.0000000000000000e+00  1.0475731950559399e+00 -1.3226974285918900e-04 0.0000000000000000e+00  8.9554384970829781e-01 -1.0738122185418390e-02 0.0000000000000000e+00  8.9216389573515165e-01 3.1447393571418437e-02 0.0000000000000000e+00  2.4199523287516389e-01 5.5228477152107977e-02 0.0000000000000000e+00  1.2184476429453663e+00 -5.9653965835152617e-02 0.0000000000000000e+00  9.3546944430649814e-01 -3.9913099952077279e-02 0.0000000000000000e+00  1.0789542352894630e+00 -9.2256723693314280e-02 0.0000000000000000e+00  1.5683152878405338e+00 -1.8127243049620548e-01 0.0000000000000000e+00  1.1638389638930478e+00 2.3407419530250663e-03 0.0000000000000000e+00  1.5437761899945410e+00 -2.2949940366139867e-02 0.0000000000000000e+00  1.4892294706035243e+00 3.5086151682928446e-02 0.0000000000000000e+00  1.2004633087567240e+00 -2.4505247162652931e-03 0.0000000000000000e+00  1.4137846545511454e+00 -1.1227936479553882e-01 0.0000000000000000e+00  1.4797738751674099e+00 -1.1317096126376167e-01 0.0000000000000000e+00  1.1001386137472176e+00 -4.4312710485834891e-02 0.0000000000000000e+00  7.9850431975311775e-02 -6.6937989377761214e-02 0.0000000000000000e+00  3.1245477178100906e-01 3.7457958561427702e-02 0.0000000000000000e+00  1.1985726678083470e+00 1.9248956056359232e-05 0.0000000000000000e+00  1.0634887069819106e+00 6.5903253281987908e-04 0.0000000000000000e+00  1.1792522412115360e+00 8.6187546335141762e-03 0.0000000000000000e+00  1.3781071053056924e+00 -4.5674049663767237e-02 0.0000000000000000e+00  7.8203262639352511e-01 -5.4182253430619361e-03 0.0000000000000000e+00  1.0276892415954546e+00 -5.4866607969899406e-05 0.0000000000000000e+00  1.1996361558914745e+00 -5.4034525001845344e-04 0.0000000000000000e+00  1.0558349349717466e+00 5.6906920396540620e-02 0.0000000000000000e+00  1.0145776657227288e+00 1.1919921165014059e-04 0.0000000000000000e+00  6.5624908766840906e-01 9.4134235601232132e-08 0.0000000000000000e+00  1.0458586717166038e+00 5.3910971317243241e-02 0.0000000000000000e+00  1.5736099162809192e+00 3.9549882513810100e-02 0.0000000000000000e+00  1.5503562854923962e+00 -2.5107795144466795e-02 0.0000000000000000e+00  1.0802065308230049e+00 1.3102303325398054e-01 0.0000000000000000e+00  1.0659662856679248e+00 7.8338613955525355e-02 0.0000000000000000e+00  8.3588708189441641e-01 8.8707653364093510e-03 0.0000000000000000e+00  7.7977251561731298e-01 9.2361636906525352e-02 0.0000000000000000e+00  1.3909200591393354e+00 -5.8110514221045564e-03 0.0000000000000000e+00  1.6523237130229638e+00 1.6601581381955224e-01 0.0000000000000000e+00  1.2122848907660553e+00 -1.5094845833773024e-02 0.0000000000000000e+00  1.2806230244869075e+00 2.3433477640059042e-02 0.0000000000000000e+00  1.6130680845846250e+00 -1.8872435571933448e-02 0.0000000000000000e+00  1.5201653638346615e+00 -1.5018990565159515e-01 0.0000000000000000e+00  1.1999708703310632e+00 -4.5135288809530934e-04 0.0000000000000000e+00  1.1917916972584359e+00 3.0038059892690782e-05 0.0000000000000000e+00  1.1994076287124666e+00 -1.0696616370772859e-04 0.0000000000000000e+00  9.7278486942672282e-01 -1.7822310710811512e-03 0.0000000000000000e+00  1.5823981645356699e+00 6.5208501545921697e-03 0.0000000000000000e+00  9.4154602916108587e-01 9.3783773187118724e-02 0.0000000000000000e+00  1.2003958698895723e+00 1.3441580102546964e-02 0.0000000000000000e+00  1.2233051328993980e+00 1.6091092287377956e-01 0.0000000000000000e+00  1.0155241506730672e+00 -4.7700022437252554e-04 0.0000000000000000e+00  1.1772326114013130e+00 -2.7044643779666089e-02 0.0000000000000000e+00  1.3634617863381715e+00 9.8479374442769413e-02 0.0000000000000000e+00  1.4602134785254401e+00 4.8571891748356674e-02 0.0000000000000000e+00  1.1948295788912953e+00 -1.1127108387766413e-04 0.0000000000000000e+00  1.2047898449372036e+00 -8.2829486373949528e-03 0.0000000000000000e+00  1.2022991338654512e+00 -1.5593480904051599e-02 0.0000000000000000e+00  1.2957090893355541e+00 -2.2658492273337699e-02 0.0000000000000000e+00  8.5560944421929952e-01 -1.5779065963778940e-04 0.0000000000000000e+00  7.5546372278494267e-01 -3.1595499567105979e-02 0.0000000000000000e+00  7.7245436353106345e-01 -1.9395571033206872e-02 0.0000000000000000e+00  8.9092905792143362e-01 -1.5227697892918507e-02 0.0000000000000000e+00  1.1911255441690469e+00 -9.4631824899741988e-05 0.0000000000000000e+00  9.0300559650013112e-01 -2.4816197609194909e-06 0.0000000000000000e+00  1.1985916345290395e+00 -7.7686420019169151e-04 0.0000000000000000e+00  1.1960862076784409e+00 -4.4215850097402129e-05 0.0000000000000000e+00  6.9908910811330760e-01 2.4111891627558762e-02 0.0000000000000000e+00  7.8772765741837736e-01 4.9380304103007713e-02 0.0000000000000000e+00  1.1998635831258861e+00 -8.4915451171161882e-05 0.0000000000000000e+00  1.1922059776019338e+00 -1.8542809806107457e-04 0.0000000000000000e+00  6.2278590965003777e-01 1.2810562515977460e-02 0.0000000000000000e+00  1.3850758953973139e+00 1.0450240469040807e-02 0.0000000000000000e+00  7.9575892222264777e-01 8.3662502144966292e-03 0.0000000000000000e+00  9.5633596152860711e-01 1.6726981576739538e-03 0.0000000000000000e+00  7.3879403165899427e-01 -7.9171800250744856e-02 0.0000000000000000e+00  1.2015249643013872e+00 -4.1872130410043465e-02 0.0000000000000000e+00  8.4723995712518585e-01 -1.0320424586260833e-04 0.0000000000000000e+00  1.5351030998673267e+00 1.2594389102937512e-02 0.0000000000000000e+00  1.5283955668375178e+00 4.7687023097237907e-01 0.0000000000000000e+00  1.0051079254939776e+00 1.8265682310138395e-01 0.0000000000000000e+00  9.2065684385645530e-01 1.5453841484379746e-04 0.0000000000000000e+00  1.3202560716834104e+00 -1.2697005021470606e-01 0.0000000000000000e+00  1.4485066543370737e+00 -5.4645578114948223e-01 0.0000000000000000e+00  8.9516220594111340e-01 4.7785172438330418e-03 0.0000000000000000e+00  9.4406980482239378e-01 1.2920032140272463e-04 0.0000000000000000e+00  1.4927341019899285e+00 -2.6841071893846297e-02 0.0000000000000000e+00  3.7530575065804039e-01 3.8873769236836782e-02 0.0000000000000000e+00  1.4062541153285335e+00 1.9038890455930400e-07 0.0000000000000000e+00  1.1993919588434367e+00 -2.1004673186649255e-05 0.0000000000000000e+00  9.2091874557907183e-01 -2.7541198058570946e-04 0.0000000000000000e+00  1.4062506617577704e+00 1.2025601620780793e-07 0.0000000000000000e+00  9.2054616578160042e-01 4.5864269668023202e-05 0.0000000000000000e+00  1.8368425726399464e+00 -3.3205778455897395e-01 0.0000000000000000e+00  1.2270510755935269e+00 -6.2482611357473185e-03 0.0000000000000000e+00  7.1462040562696771e-01 9.8754004719344826e-02 0.0000000000000000e+00  1.1998147125755076e+00 -1.9765809850272355e-05 0.0000000000000000e+00  8.3751993268362790e-01 -3.1546363880530878e-02 0.0000000000000000e+00  7.3184373602516783e-01 -7.4556942419338659e-03 0.0000000000000000e+00  1.2429630507161460e+00 -5.4052422359957969e-03 0.0000000000000000e+00  5.6707901966181695e-01 -3.8970630595424128e-03 0.0000000000000000e+00  8.5517392862733510e-01 6.4790397490838776e-04 0.0000000000000000e+00  1.322863531