<?xml version="1.0"?>
<VTKFile type="UnstructuredGrid"  version="0.1"  >
<UnstructuredGrid>
<Piece  NumberOfPoints="2426" NumberOfCells="4534">
<Points>
<DataArray  type="Float64"  NumberOfComponents="3"  format="ascii">0 0.41 0  0 0 0  2.2 0 0  2.2 0.41 0  0.2404508497187474 0.2293892626146237 0  0.25 0.2 0  0.2404508497187474 0.1706107373853764 0  0.2154508497187474 0.1524471741852423 0  0.1845491502812526 0.1524471741852423 0  0.1595491502812526 0.1706107373853764 0  0.15 0.2 0  0.1595491502812526 0.2293892626146237 0  0.1845491502812527 0.2475528258147577 0  0.2154508497187474 0.2475528258147577 0  0.5404508497187474 0.2293892626146237 0  0.55 0.2 0  0.5404508497187474 0.1706107373853764 0  0.5154508497187473 0.1524471741852423 0  0.4845491502812526 0.1524471741852423 0  0.4595491502812526 0.1706107373853764 0  0.45 0.2 0  0.4595491502812526 0.2293892626146237 0  0.4845491502812526 0.2475528258147577 0  0.5154508497187473 0.2475528258147577 0  1.1 0 0  0 0.205 0  1.1 0.41 0  0.55 0 0  0.55 0.41 0  0.275 0 0  0.275 0.41 0  1.65 0.41 0  1.65 0 0  1.375 0 0  1.375 0.41 0  1.925 0 0  1.925 0.41 0  0.8250000000000001 0.41 0  0.8250000000000001 0 0  1.5125 0.205 0  1.7875 0.205 0  0.9625000000000001 0.205 0  1.2375 0.205 0  2.2 0.205 0  0.7560964076246335 0.2151713709677419 0  1.99375 0.2152743902439024 0  2.0625 0 0  0.6875 0 0  2.0625 0.41 0  2.2 0.3075 0  0.6875 0.41 0  1.7875 0.41 0  1.375 0.1486128048780488 0  1.5125 0 0  1.7875 0 0  1.5125 0.41 0  0.9625000000000001 0 0  0.9625000000000001 0.41 0  0.4125 0 0  0.1375 0 0  0.1375 0.41 0  0.4125 0.41 0  1.2375 0 0  1.1 0.1486128048780487 0  1.2375 0.41 0  1.65 0.1486128048780487 0  1.126715909090909 0.2793064024390244 0  1.676715909090909 0.2793064024390244 0  1.348284090909091 0.2793064024390244 0  0.34375 0.3032389320646208 0  1.894702181800738 0.1282910975492754 0  2.092797818199262 0.1282910975492754 0  1.85625 0.3075 0  0.8630851210521902 0.286932093388664 0  0.89375 0.1025 0  0.35 0.1090282786671641 0  0 0.3075 0  0 0.1025 0  0.6526217841291382 0.288229645480046 0  0.7562500000000001 0.09660248895515888 0  0.6568633732316684 0.1557582854763441 0  2.099172119769978 0.25625 0  1.002356446954348 0.1010393851523063 0  1.99375 0.08395950269330846 0  1.459960956013612 0.3075 0  1.569025960719943 0.2986889805672169 0  1.03125 0.3278689922742084 0  0.75625 0.3247156761655783 0  1.959375 0.3126371951219512 0  1.749222215368287 0.1025 0  1.275777784631713 0.1025 0  2.2 0.1025 0  1.225938124459196 0.3075 0  1.550777784631713 0.1025 0  1.44375 0.07430640243902442 0  1.16875 0.07430640243902437 0  0.3528655045338512 0.2063263890916129 0  0.5890337614812103 0.08775733857679162 0  0.8504912436891263 0.190072835691683 0  1.899250267340833 0.2229966846119207 0  0.1020898364287272 0.3140258291809757 0  1.766482954545455 0.2934032012195123 0  1.051658316544432 0.2265720188842194 0  0.2 0.3400647632937836 0  1.421109702350723 0.2261157654379721 0  0.4812500000000001 0.41 0  0.4324401666997539 0.3216425986889796 0  0.098916018031319 0.09171660955420841 0  0.9508742791313441 0.2921736960864468 0  2.13125 0 0  2.118919042110979 0.3422084711244843 0  1.30625 0.41 0  0.20625 0 0  1.597888256393107 0.2173787389261347 0  0.4812500000000001 0 0  0.4324082967851086 0.08384041677422771 0  1.829299675393195 0.07400700849299596 0  0.568219932524165 0.3212274660843853 0  1.71875 0.41 0  0.268005226542646 0.08512186835670006 0  1.16875 0.41 0  2.038220665644273 0.332420740103091 0  0.6678017527842831 0.07701763866051195 0  0.89375 0.41 0  0.5111435174287687 0.07335351331957608 0  0.176193934632343 0.0734896648625108 0  0.07390688010811153 0.1697064032433452 0  0.05452951551825875 0.25625 0  0.61875 0.41 0  1.452769549894695 0.1548122580621249 0  1.369219062229598 0.07430640243902442 0  1.30625 0 0  1.720943423819132 0.1714577452753128 0  1.157188124459196 0.205 0  1.094219062229598 0.07430640243902437 0  1.304056576180868 0.1714577452753128 0  1.67579304192913 0.07430640243902437 0  0.2672907219039591 0.3037570723459566 0  1.209670467133757 0.1362100266964769 0  1.58125 0 0  1.03125 0 0  0.06875000000000001 0.41 0  0 0.35875 0  1.58125 0.41 0  1.631724228912893 0.3381867502687533 0  0.8240147050827157 0.1225233169495944 0  1.825608881788174 0.14499488549201 0  1.85625 0 0  1.44375 0 0  1.44375 0.41 0  1.85625 0.41 0  2.13125 0.41 0  0.7562500000000001 0.41 0  0.7562500000000001 0 0  0.89375 0 0  0.34375 0 0  0.34375 0.41 0  0.20625 0.41 0  0.06875000000000001 0 0  1.16875 0 0  1.03125 0.41 0  0.61875 0 0  1.71875 0 0  1.99375 0 0  1.99375 0.41 0  0.3972301426712326 0.2593842555611471 0  1.340625 0.3489494290853124 0  1.134375 0.3489494290853123 0  1.700180620188976 0.3438659752031281 0  0.5003922072260507 0.341765274319271 0  0.6212513815748759 0.2209216137134851 0  0.6885607720119526 0.215393731583638 0  1.033412357328477 0.1612902025713047 0  2.135782184673599 0.07126652247502523 0  1.668441847249787 0.2129203728327609 0  1.295782514339747 0.2378437748815763 0  1.409375 0.3520314716057996 0  2.129248544730567 0.1906135162504124 0  2.060771381434487 0.1989445750470348 0  2.013252586573865 0.1496169464686054 0  1.942766402200229 0.1734448904596831 0  1.895522487186454 0.06076163953489683 0  2.069553871656643 0.06605731020975725 0  0.9281250000000001 0.3539050257418612 0  1.274680914880868 0.3520219391081363 0  0.3030138498135347 0.2488370856812789 0  0.8223773249563684 0.341761430177996 0  0.9018164060227267 0.2326477848736739 0  0.8143027982392851 0.2440265179987191 0  0.7225087161029304 0.2699907246386231 0  1.614713220494657 0.09473434380863296 0  0.378125 0.3566194660323104 0  0.309375 0.3566194660323104 0  1.72990325744076 0.2380068107952482 0  0.6915936999299305 0.3429472631234433 0  0.6268087624932918 0.3466455500035671 0  1.356580098625191 0.2120393231351682 0  0.3060160055995138 0.1590148921620778 0  0.3954648733249218 0.156380553890791 0  2.034370752044885 0.2668681600792073 0  1.51768709249349 0.3426260931494756 0  1.561883724969884 0.1650446847858835 0  1.197344062229598 0.2523725417393646 0  0.9281250000000001 0.05124999999999999 0  1.804085235518364 0.3468178408964637 0  1.817887819205233 0.2589243285818559 0  0.9107805776841645 0.1653834539923287 0  1.905897727272727 0.3485060975609756 0  0 0.05125 0  0.844212276491354 0.0614201194265309 0  0.378125 0.05244637078450034 0  1.008571329007178 0.2705955969954818 0  0.7724048032149464 0.1559079561351474 0  0.7203054377831548 0.04941826955193545 0  1.192836486056382 0.3562350748565544 0  0.5967108020713719 0.1479294686523888 0  1.28257088594801 0.2944411014911587 0  0.7041890234548132 0.1222025174424443 0  1.474860187679412 0.2504218616229368 0  1.406767003493824 0.2829282258560709 0  0.3201325899091991 0.05890121548989159 0  0.5979220912872258 0.2727591995766724 0  1.845656689180403 0.1998310418452388 0  2.144958525570388 0.2909790873294231 0  2.2 0.15375 0  1.57794966442982 0.3540357145964566 0  0.9483181579620558 0.1214693369582054 0  0.0496154796471391 0.333125 0  1.508991196088596 0.1421783375065625 0  0.09776612425612034 0.2204896805326566 0  1.50436820029908 0.06143401634903343 0  1.223857000523521 0.0823554862453532 0  0.2531953886959507 0.3582003209055908 0  1.153316824384777 0.1289850171317837 0  2.148922302309752 0.1258841779285271 0  1.621993280276081 0.2841214267927899 0  1.550118654119087 0.2461998729100966 0  1.327182649291491 0.1216967252533594 0  1.753125 0.04556020050186112 0  1.271875 0.04556020050186116 0  0.9824282234771738 0.05051969257615314 0  1.039510847866381 0.05683351822678641 0  1.94956388244759 0.1180512551534177 0  1.949997712993411 0.04965831614304109 0  1.771961817615021 0.1530278789497521 0  1.909246823951428 0.2812757146784527 0  1.101974016627944 0.2038045618205013 0  0.7906250000000001 0.0444674049654372 0  1.948575539857022 0.2445328248721197 0  1.697271520964565 0.1233917627620729 0  1.065625 0.3689344961371042 0  1.085849084308977 0.3170853572226867 0  0.9840604787624379 0.3582077516409966 0  1.577403511714593 0.05463601888079143 0  0.05622663515370135 0.05493816910862376 0  0.8762396958822678 0.3392249777398821 0  1.751571320346033 0.3651102912045228 0  1.055327852410105 0.111864799513911 0  0.1583785085108421 0.2994699345738728 0  0.1455283439499995 0.3542795598723423 0  2.2 0.35875 0  0.225705107073232 0.05084786997482401 0  0.1455852234589313 0.1166494778469164 0  1.466879772203159 0.3611261772912453 0  1.990280163552011 0.3564754268533217 0  1.17471064520912 0.2990917256188288 0  0.7221925551074015 0.1739659241003985 0  0 0.25625 0  2.2 0.25625 0  2.2 0.05125 0  0 0.15375 0  1.853978576207987 0.35875 0  0.21965520498276 0.1015543880164422 0  1.515638456102889 0.2882700110184686 0  0.09048297387599738 0.3637717362208066 0  2.150453692751374 0.2387066338105111 0  1.323782677156475 0.04897634338873398 0  1.409375 0.03715320121951221 0  1.406484531114799 0.1087852750766809 0  1.134375 0.03715320121951218 0  1.627401732573545 0.04552157221025036 0  0.446875 0.3713289093361426 0  2.045405893604797 0.1105340662939892 0  1.255408269734577 0.1577307500159216 0  2.028125 0.03707597992059326 0  0.04420832937638274 0.128125 0  0.5817551710628505 0.3702615006034757 0  0.1197849154434487 0.2663398672460083 0  1.248258025468107 0.2565907092181813 0  0.1300647302703173 0.0508462728378621 0  0.7738123537510222 0.2761231499240648 0  1.203125 0.0366132337404304 0  0.5444207041612499 0.111205399508622 0  0.8016457771828226 0.1964238426015905 0  2.072662025974815 0.2975086504196739 0  0.4019040438866802 0.2103993403217561 0  0.4677372330974851 0.04827477407630658 0  0.8677218578847617 0.1432970430140788 0  1.058011122005847 0.2758866204059919 0  0.4429405887974043 0.2746184809910084 0  0.5843750000000001 0.03726989681835222 0  0.6318596133730142 0.1128692182767254 0  0.4862628454464408 0.2957029785303028 0  0.7805186758662764 0.3673578380827891 0  1.887722846421017 0.1760882698830035 0  0.3498893058880703 0.256189258793856 0  1.472640588990488 0.1118278026240017 0  1.865937103925594 0.2604137786483804 0
[...]
<PointData  Vectors="f_37"> 
<DataArray  type="Float64"  Name="f_37"  NumberOfComponents="3" format="ascii">-6.0964694872618898e-07 2.0770832176101241e-08 0.0000000000000000e+00  3.7179033146792403e-07 -2.9265802170498483e-08 0.0000000000000000e+00  -1.0901073299986143e-06 2.4939205328703283e-08 0.0000000000000000e+00  1.2354569636419317e-07 -6.0347734777761501e-08 0.0000000000000000e+00  -9.8253869814750475e-07 2.1171202491530297e-07 0.0000000000000000e+00  -7.8201433252897736e-07 3.1271634379623223e-07 0.0000000000000000e+00  -1.6817003239572251e-06 3.9550853372391057e-07 0.0000000000000000e+00  1.1667341512336397e-06 2.5315571453047422e-07 0.0000000000000000e+00  2.8105078759096307e-06 -5.2869032691763269e-07 0.0000000000000000e+00  -9.9127731454763202e-07 1.0169323050695390e-07 0.0000000000000000e+00  -1.7371864504608993e-06 1.1282267914342941e-06 0.0000000000000000e+00  7.5502256611979871e-07 2.2419398833290439e-06 0.0000000000000000e+00  -3.6594054941232643e-06 -1.3138766275290045e-06 0.0000000000000000e+00  -3.5323758563289287e-06 -9.1110802490617018e-07 0.0000000000000000e+00  -1.6842499410098168e-06 -6.0729673173643913e-07 0.0000000000000000e+00  -1.4390258355480506e-06 -1.7662597440616352e-06 0.0000000000000000e+00  -4.1163261532321880e-06 -6.7747233241327106e-07 0.0000000000000000e+00  -2.6036246321781009e-06 6.0573313938771294e-08 0.0000000000000000e+00  -9.3894651857711573e-07 -1.7412836486565256e-07 0.0000000000000000e+00  -2.1917977303504869e-06 -7.3691725747569329e-07 0.0000000000000000e+00  -1.0416071446481496e-06 -8.7622565705704256e-07 0.0000000000000000e+00  -4.3004982579172923e-07 -6.7780398958920529e-07 0.0000000000000000e+00  -1.4766597916915687e-06 1.3140734527684932e-07 0.0000000000000000e+00  -8.0938961886824738e-07 6.8724393943288339e-08 0.0000000000000000e+00  -3.4424692653060697e-06 1.6468978147914600e-07 0.0000000000000000e+00  1.5000025262545822e+00 2.4622018604973780e-08 0.0000000000000000e+00  1.7105746432767873e-06 2.3478967819410726e-07 0.0000000000000000e+00  -2.2376667976904601e-06 -2.9289531462518700e-08 0.0000000000000000e+00  -9.2001134773231192e-07 9.4408455621887954e-08 0.0000000000000000e+00  -2.5726939430170801e-06 8.8745501512708708e-08 0.0000000000000000e+00  -1.1308369806604004e-06 -3.1103173846491670e-08 0.0000000000000000e+00  -1.8998525724854631e-06 -1.4191854806948486e-07 0.0000000000000000e+00  1.5420392982141094e-06 -8.4745140626030021e-08 0.0000000000000000e+00  1.0748922952964753e-06 3.1674318370982898e-07 0.0000000000000000e+00  1.1459749209937681e-06 3.5097126267892210e-07 0.0000000000000000e+00  -4.6663111355077683e-07 1.2651195261718645e-07 0.0000000000000000e+00  9.8142754248642116e-08 -1.4016145792482675e-07 0.0000000000000000e+00  -7.4130274508408041e-07 -1.2830442424505464e-07 0.0000000000000000e+00  -2.0003335609446458e-06 -3.3064639038274454e-07 0.0000000000000000e+00  1.0675354010050349e+00 -4.3075894314218488e-02 0.0000000000000000e+00  1.1337246613952949e+00 7.8578662963359469e-02 0.0000000000000000e+00  6.0751477663938469e-01 3.9880571963376396e-02 0.0000000000000000e+00  9.0630115924577559e-01 -2.6184709077279360e-02 0.0000000000000000e+00  1.2430445873885991e+00 1.0070172253998755e-01 0.0000000000000000e+00  2.2930114804912949e-01 -7.3120579981998016e-02 0.0000000000000000e+00  1.2276378871613798e+00 -8.4109150466814886e-02 0.0000000000000000e+00  -4.6544792841767113e-07 -1.8542146552476150e-07 0.0000000000000000e+00  -2.3958804482406696e-06 1.3838712096706608e-09 0.0000000000000000e+00  -6.8352585661776239e-07 8.4714745506146221e-08 0.0000000000000000e+00  1.2945335467151602e+00 2.5532082532415835e-03 0.0000000000000000e+00  4.4832802605932558e-07 8.9202056629491035e-08 0.0000000000000000e+00  -2.5787110123878091e-07 3.2536397365220834e-07 0.0000000000000000e+00  1.3526005879868883e+00 1.6067507131317223e-02 0.0000000000000000e+00  8.7906715980745762e-07 -2.1927087837903480e-08 0.0000000000000000e+00  -1.0212400378006824e-06 1.9814649948288106e-08 0.0000000000000000e+00  1.9553506768510125e-06 -1.1181287828158621e-07 0.0000000000000000e+00  5.2643413308323093e-07 2.0631770332647529e-08 0.0000000000000000e+00  -1.9749629716458687e-06 -3.2025085628976717e-08 0.0000000000000000e+00  -5.1110242524803568e-07 -2.4463033158856992e-08 0.0000000000000000e+00  3.0257854122431492e-07 6.4331297958310935e-08 0.0000000000000000e+00  6.0722868523401790e-07 1.3386921917874433e-07 0.0000000000000000e+00  -2.9250103381657330e-06 1.0306322522513873e-07 0.0000000000000000e+00  2.9455735416355575e-06 -3.5116423676290684e-07 0.0000000000000000e+00  1.3294147550662667e+00 5.6001247661607492e-03 0.0000000000000000e+00  -2.6333774248876883e-06 -4.2931745052441911e-07 0.0000000000000000e+00  1.3992806575081789e+00 2.9294440220667402e-02 0.0000000000000000e+00  1.5835790664503300e+00 -3.1510658575392349e-02 0.0000000000000000e+00  1.4004925091591600e+00 1.1499867895630121e-02 0.0000000000000000e+00  1.5204736371550309e+00 -8.8152409855484521e-03 0.0000000000000000e+00  1.9604348840013770e+00 3.0595648239106942e-02 0.0000000000000000e+00  1.2664629144810957e+00 -1.1882278378620714e-02 0.0000000000000000e+00  1.3768136272897915e+00 2.7371808880694497e-02 0.0000000000000000e+00  1.2928066112884742e+00 -1.0793760187257076e-02 0.0000000000000000e+00  1.6500996497133129e+00 -8.8293414481549717e-02 0.0000000000000000e+00  1.5542509023230919e+00 8.7864675445402066e-02 0.0000000000000000e+00  1.8656133005610036e+00 1.0607374807520664e-02 0.0000000000000000e+00  1.1249986045628575e+00 -1.6937677186964739e-07 0.0000000000000000e+00  1.1250027208750579e+00 2.0184590925542989e-08 0.0000000000000000e+00  1.7763614609097993e+00 -1.6972380530326128e-01 0.0000000000000000e+00  1.6547905483349361e+00 1.3920771870053450e-01 0.0000000000000000e+00  7.2075235919837899e-01 1.0259342199294323e-01 0.0000000000000000e+00  1.2296254155629640e+00 1.0905091398627723e-03 0.0000000000000000e+00  1.4591988893033339e+00 1.7414640864735813e-02 0.0000000000000000e+00  1.1213110347177551e+00 6.7044104961379632e-03 0.0000000000000000e+00  1.3581220076830438e+00 -8.5074682687887471e-03 0.0000000000000000e+00  1.3765353092068713e+00 1.7654261019021705e-02 0.0000000000000000e+00  1.2467707039797638e+00 -3.1956712503868036e-02 0.0000000000000000e+00  1.5407080362466044e+00 -1.2021471543279454e-01 0.0000000000000000e+00  1.2154201011505543e+00 1.3726144063424138e-02 0.0000000000000000e+00  1.2600172802438570e+00 -6.9570185653679943e-03 0.0000000000000000e+00  1.3929511143195361e+00 1.0880768162148457e-02 0.0000000000000000e+00  1.1978801504182706e+00 -7.0603248366297566e-03 0.0000000000000000e+00  1.3991304069867143e+00 1.4893787297092578e-02 0.0000000000000000e+00  1.3461229433910928e+00 1.2097275917597747e-02 0.0000000000000000e+00  1.0585144071208683e+00 -6.5351960388291370e-03 0.0000000000000000e+00  1.0965865635524861e+00 9.7713750785877341e-03 0.0000000000000000e+00  -3.3009511622950993e-01 -1.3880044468488052e-02 0.0000000000000000e+00  1.7772480881908022e+00 1.2188389137351766e-01 0.0000000000000000e+00  4.4826509554141047e-01 2.3811644077387926e-02 0.0000000000000000e+00  1.3296776746418761e+00 -5.1672044833924853e-02 0.0000000000000000e+00  1.1818328163763410e+00 2.5543762430806721e-01 0.0000000000000000e+00  1.4325549670275661e+00 -1.4997502673964300e-02 0.0000000000000000e+00  1.0473248984606132e+00 -3.1496445178472443e-02 0.0000000000000000e+00  1.3810072479460707e+00 2.1765516154352377e-01 0.0000000000000000e+00  1.1614854314062384e+00 4.2452186081923535e-03 0.0000000000000000e+00  7.0261160854037274e-07 -5.9029093602462466e-10 0.0000000000000000e+00  1.8407895377679677e+00 -6.0442580721250451e-02 0.0000000000000000e+00  1.1435910828813625e+00 -2.5640251996837271e-01 0.0000000000000000e+00  1.6287377915218584e+00 -5.9154547237526243e-02 0.0000000000000000e+00  -9.3910708475251922e-08 1.6302222558622643e-07 0.0000000000000000e+00  9.6094417875196458e-01 3.9437667333321125e-03 0.0000000000000000e+00  -4.0126446517876803e-06 -6.7602879371487962e-08 0.0000000000000000e+00  -6.8731031927760406e-06 2.6731423919788537e-07 0.0000000000000000e+00  1.1034443032968877e+00 -4.7978284892399713e-02 0.0000000000000000e+00  1.1850111859132420e-06 -1.4073081575276057e-08 0.0000000000000000e+00  1.8241978419110778e+00 7.9094862427140117e-02 0.0000000000000000e+00  1.0212843669855709e+00 -2.1483227184416098e-03 0.0000000000000000e+00  1.7938390226915759e+00 -1.1537645622911255e-01 0.0000000000000000e+00  -3.4071401973966812e-06 -2.4692527131735990e-08 0.0000000000000000e+00  1.7979879882242935e+00 -1.4118125526756359e-01 0.0000000000000000e+00  2.7874954084583451e-07 -2.0745596446237753e-07 0.0000000000000000e+00  1.0617986052946464e+00 2.7283088202866420e-03 0.0000000000000000e+00  1.6028609585607452e+00 1.2614920380893394e-01 0.0000000000000000e+00  -4.4116024163418834e-06 -1.6609230640255990e-07 0.0000000000000000e+00  1.7200955760136680e+00 7.4033135037766679e-02 0.0000000000000000e+00  1.3596913699375497e+00 -3.0228669045558165e-01 0.0000000000000000e+00  1.3399899553727770e+00 -1.2287863855902702e-01 0.0000000000000000e+00  1.3729684435471041e+00 1.2463817332542498e-01 0.0000000000000000e+00  2.2064709654161130e-07 5.8504848102254199e-08 0.0000000000000000e+00  1.2372030295490990e+00 3.5685315394519755e-03 0.0000000000000000e+00  1.0506242975087272e+00 -1.4759994505373061e-02 0.0000000000000000e+00  2.6893185955395715e-06 1.4554031132122134e-07 0.0000000000000000e+00  1.2671929344677875e+00 5.0208071641277358e-02 0.0000000000000000e+00  8.6957892880628884e-01 -5.2405198914683787e-02 0.0000000000000000e+00  1.1181776682145741e+00 8.1722007696552609e-04 0.0000000000000000e+00  1.1862415095703058e+00 3.5462411332693573e-02 0.0000000000000000e+00  1.0166518651129011e+00 -5.8025746998952308e-03 0.0000000000000000e+00  1.9201435640584288e+00 1.8467150026776727e-01 0.0000000000000000e+00  1.4906967754515461e+00 2.6648726364431469e-02 0.0000000000000000e+00  3.3100111377736466e-06 -1.8007272739418924e-07 0.0000000000000000e+00  -1.3275913044376569e-06 2.4742990756982672e-07 0.0000000000000000e+00  -7.9604318732944218e-07 -5.5938152965850365e-08 0.0000000000000000e+00  6.5625203987525538e-01 1.7330286235823914e-08 0.0000000000000000e+00  -1.8222345448930180e-06 -2.0114942865163157e-07 0.0000000000000000e+00  1.0174526035968603e+00 8.1179665142589886e-03 0.0000000000000000e+00  1.6450750092622948e+00 1.3731359349174255e-01 0.0000000000000000e+00  1.2477372292358935e+00 2.3654528741788815e-02 0.0000000000000000e+00  -6.2483261931044709e-07 2.0512459898956794e-08 0.0000000000000000e+00  -5.2120549816538346e-06 2.0297910283693968e-07 0.0000000000000000e+00  2.3728086060587126e-06 2.0581229965026943e-07 0.0000000000000000e+00  1.0146149061409599e-06 2.4116167689400374e-07 0.0000000000000000e+00  -1.2341961446882540e-06 -2.0796628376910736e-07 0.0000000000000000e+00  4.9302399364092938e-07 7.0683041940034691e-08 0.0000000000000000e+00  -3.4286339944543425e-06 -1.7145761757486365e-07 0.0000000000000000e+00  1.4314628498269777e-06 -2.5306222957455780e-07 0.0000000000000000e+00  3.4156883565118195e-07 -1.1348225095944294e-08 0.0000000000000000e+00  2.3081136749070633e-07 1.4301367996984008e-08 0.0000000000000000e+00  1.1437683173955730e-06 -9.0483704673734655e-08 0.0000000000000000e+00  -8.2722046307423958e-07 1.4507902081999546e-07 0.0000000000000000e+00  -2.1155949033764599e-07 -1.0392368222348731e-07 0.0000000000000000e+00  2.2729721409805908e-08 4.7878632553086321e-07 0.0000000000000000e+00  -3.0892269303295628e-06 -1.1483980994495894e-07 0.0000000000000000e+00  -2.4191869868005466e-06 2.4723096153741923e-07 0.0000000000000000e+00  -1.8875967789559244e-06 -1.8605311363443032e-07 0.0000000000000000e+00  -3.6016510386187891e-06 -9.4745830185938620e-08 0.0000000000000000e+00  7.2199459470886795e-01 -4.1290230924219969e-02 0.0000000000000000e+00  8.6459447949281831e-01 -1.4651764182702848e-03 0.0000000000000000e+00  8.5920012671396961e-01 4.7812176368655064e-03 0.0000000000000000e+00  9.4330343478863465e-01 -7.1428142650868296e-04 0.0000000000000000e+00  1.6575245543525223e+00 -7.0516363086779443e-02 0.0000000000000000e+00  1.4065566981410781e-02 -3.5542886452385857e-03 0.0000000000000000e+00  5.3375295118165092e-02 -4.2465338849625632e-02 0.0000000000000000e+00  1.1549450814133675e+00 3.4341440192268494e-02 0.0000000000000000e+00  9.6676726660866852e-01 -9.3438677541648908e-03 0.0000000000000000e+00  1.0950820665597494e+00 9.3275242353562816e-03 0.0000000000000000e+00  1.1703545283583048e+00 6.6308615468527567e-03 0.0000000000000000e+00  8.0659348627739091e-01 -1.5399395571371528e-03 0.0000000000000000e+00  1.3157479773413865e+00 5.3673889744525534e-02 0.0000000000000000e+00  1.2278495562870517e+00 -3.5225615971626954e-02 0.0000000000000000e+00  1.3431773707854426e+00 -2.2834630759059171e-02 0.0000000000000000e+00  1.1694503439431636e+00 -7.1277012558692898e-02 0.0000000000000000e+00  8.6533696975760910e-01 -1.3241517395632168e-03 0.0000000000000000e+00  9.1104760009793573e-01 -1.4701822431264404e-03 0.0000000000000000e+00  8.8843729762814883e-01 -2.2586077757408767e-02 0.0000000000000000e+00  8.2087177961986302e-01 6.9834281967894960e-03 0.0000000000000000e+00  2.3088065858249376e-01 5.0719891688200965e-02 0.0000000000000000e+00  1.2257401892866058e+00 -6.4286671292475409e-02 0.0000000000000000e+00  8.9417539450555039e-01 -3.6761991218123874e-02 0.0000000000000000e+00  1.0708460430343274e+00 -1.1291191756947061e-01 0.0000000000000000e+00  1.5600423631715528e+00 -1.7769153186519729e-01 0.0000000000000000e+00  1.2571584774666498e+00 1.0069556082403591e-02 0.0000000000000000e+00  1.5344451883778922e+00 -2.5799404075622649e-02 0.0000000000000000e+00  1.4843938126608953e+00 3.2372626437983769e-02 0.0000000000000000e+00  1.2032602050777064e+00 4.6825279925884131e-02 0.0000000000000000e+00  1.4248624495401820e+00 -1.0927624477182543e-01 0.0000000000000000e+00  1.4808743511142366e+00 -1.0393950937172164e-01 0.0000000000000000e+00  9.8735743893087102e-01 4.1273793732277783e-02 0.0000000000000000e+00  8.0797396025086274e-02 -5.5510097533778252e-02 0.0000000000000000e+00  2.8553647826405237e-01 2.6168226685534122e-02 0.0000000000000000e+00  1.3064151533202548e+00 -1.8922577103535173e-02 0.0000000000000000e+00  9.3659801767899387e-01 1.1914844500850775e-02 0.0000000000000000e+00  1.2089231338130539e+00 -2.5234393835403577e-02 0.0000000000000000e+00  1.4023830502590768e+00 -1.9709614802010070e-02 0.0000000000000000e+00  7.7667609365341650e-01 1.6149970730761708e-02 0.0000000000000000e+00  8.8584495782443695e-01 -1.6382814791763519e-03 0.0000000000000000e+00  1.4552753527687359e+00 -2.0444231877201992e-02 0.0000000000000000e+00  1.0881460784072223e+00 9.0785538149263864e-02 0.0000000000000000e+00  8.6549129097381217e-01 7.0578690477350794e-03 0.0000000000000000e+00  6.5624905803816391e-01 8.7718328022429820e-08 0.0000000000000000e+00  1.0764581136426885e+00 5.9279739561470993e-02 0.0000000000000000e+00  1.5671381285679025e+00 3.7854745019866270e-02 0.0000000000000000e+00  1.6102805055781135e+00 -6.0365315609222835e-02 0.0000000000000000e+00  1.0429449869528986e+00 1.0866360072481306e-01 0.0000000000000000e+00  1.0760801818837109e+00 7.0701065284431666e-02 0.0000000000000000e+00  7.4385109664168192e-01 1.1362905059064050e-02 0.0000000000000000e+00  7.9851668564248524e-01 9.0936576739614555e-02 0.0000000000000000e+00  1.4846863857326054e+00 8.8075406195298692e-03 0.0000000000000000e+00  1.6487427529404233e+00 1.6070374317825228e-01 0.0000000000000000e+00  1.4192828729212872e+00 -3.3391605945197411e-02 0.0000000000000000e+00  1.5256825785402701e+00 -2.4848957511348583e-02 0.0000000000000000e+00  1.6076233095810188e+00 -1.6840266803904415e-02 0.0000000000000000e+00  1.5072443887425448e+00 -1.3784564050114670e-01 0.0000000000000000e+00  1.1648565473153063e+00 2.6195730592434151e-02 0.0000000000000000e+00  1.3001010595729985e+00 2.3582370577614961e-02 0.0000000000000000e+00  1.3066342909549971e+00 3.4344467057061664e-02 0.0000000000000000e+00  7.9491041415977226e-01 1.0527315461937818e-02 0.0000000000000000e+00  1.5778271053712265e+00 6.4697279869979696e-02 0.0000000000000000e+00  9.4149279020335586e-01 9.3596717724575784e-02 0.0000000000000000e+00  1.3366892619932300e+00 -6.4391682288466234e-03 0.0000000000000000e+00  1.2233497613061286e+00 1.6048890612433978e-01 0.0000000000000000e+00  8.7890643369678834e-01 6.7409597500954466e-04 0.0000000000000000e+00  1.1909634447151551e+00 1.1406366884269430e-02 0.0000000000000000e+00  1.3609661192029614e+00 9.6738362231629502e-02 0.0000000000000000e+00  1.5066734320980926e+00 1.4984699346505252e-02 0.0000000000000000e+00  1.3161840497913178e+00 2.2681764314779950e-03 0.0000000000000000e+00  1.4081251541342998e+00 1.5292273788549190e-02 0.0000000000000000e+00  1.3444562644256892e+00 -2.8089965794109349e-02 0.0000000000000000e+00  1.4644682951734689e+00 6.6894878761321417e-03 0.0000000000000000e+00  6.6162755926161343e-01 -3.9763278976233099e-03 0.0000000000000000e+00  6.1774604150603440e-01 -3.5660776597456817e-03 0.0000000000000000e+00  7.3440427277336018e-01 1.2658188905349007e-03 0.0000000000000000e+00  8.3616474056795254e-01 -4.6045112437682516e-03 0.0000000000000000e+00  1.3158172110282689e+00 -1.2838087326399721e-02 0.0000000000000000e+00  7.2173681134088497e-01 -1.0027128270771786e-04 0.0000000000000000e+00  1.2895718244746506e+00 3.5081476209259776e-02 0.0000000000000000e+00  1.4101676768593148e+00 -1.3629612635669485e-02 0.0000000000000000e+00  8.1904372566135697e-01 -3.0923291130338936e-02 0.0000000000000000e+00  8.2147334487858847e-01 4.5008490231599571e-02 0.0000000000000000e+00  1.3822370673643289e+00 -3.8780442496196513e-02 0.0000000000000000e+00  1.3850277815252501e+00 1.2533175699951877e-02 0.0000000000000000e+00  5.3743698761956071e-01 -3.1355907071460559e-03 0.0000000000000000e+00  1.3518388235919139e+00 -2.3944189270557071e-02 0.0000000000000000e+00  7.6220942240458822e-01 -1.5132886840533920e-02 0.0000000000000000e+00  7.7429365043962062e-01 7.4937241209294049e-04 0.0000000000000000e+00  7.3881858056476735e-01 -7.9191704390530401e-02 0.0000000000000000e+00  1.2022904405311503e+00 -4.7212695126896818e-02 0.0000000000000000e+00  6.4956370948042153e-01 -8.6972873950400453e-04 0.0000000000000000e+00  1.5051739285661903e+00 4.9808729704532758e-03 0.0000000000000000e+00  1.5283138961172431e+00 4.7606454387631847e-01 0.0000000000000000e+00  1.0045777997936169e+00 1.8217571553688136e-01 0.0000000000000000e+00  7.6176176880809154e-01 2.1712147121251868e-03 0.0000000000000000e+00  1.3189838010460717e+00 -1.2557409580067078e-01 0.0000000000000000e+00  1.4489806863056744e+00 -5.4613488146242073e-01 0.0000000000000000e+00  6.7309094372300993e-01 4.0813474461020771e-03 0.0000000000000000e+00  7.8105474557448662e-01 3.8202713299227593e-03 0.0000000000000000e+00  1.4753175864185510e+00 2.6133069605765503e-03 0.0000000000000000e+00  3.6499254405143389e-01 5.3371284679710605e-02 0.0000000000000000e+00  1.4062540043675278e+00 1.3030762117398952e-07 0.0000000000000000e+00  1.2950119360892252e+00 7.3193295528658026e-02 0.0000000000000000e+00  7.5734300117234254e-01 -6.8940884849192138e-03 0.0000000000000000e+00  1.4062505994640220e+00 4.4467684996279560e-08 0.0000000000000000e+00  7.3269947854864759e-01 2.3854778355644822e-03 0.0000000000000000e+00  1.8373701991264912e+00 -3.2975102689202224e-01 0.0000000000000000e+00  1.4521710965950478e+00 -1.7272817585443382e-03 0.0000000000000000e+00  7.1440500545032004e-01 9.8554446614561628e-02 0.0000000000000000e+00  1.2183501665960998e+00 6.0897847395524500e-02 0.0000000000000000e+00  6.7645876128024574e-01 -8.8284914233978887e-03 0.0000000000000000e+00  5.2133249113338964e-01 -6.0161843639593713e-03 0.0000000000000000e+00  1.3790630538011408e+00 -1.3118473845407293e-02 0.0000000000000000e+00  4.9409948799209813e-01 -1.1340745018992792e-03 0.0000000000000000e+00  6.4717730592910117e-01 -1.7940803976477680e-03 0.0000000000000000e+00  1.3086510238926108e+00 -4.42778