<?xml version="1.0"?>
<VTKFile type="UnstructuredGrid"  version="0.1"  >
<UnstructuredGrid>
<Piece  NumberOfPoints="2426" NumberOfCells="4534">
<Points>
<DataArray  type="Float64"  NumberOfComponents="3"  format="ascii">0 0.41 0  0 0 0  2.2 0 0  2.2 0.41 0  0.2404508497187474 0.2293892626146237 0  0.25 0.2 0  0.2404508497187474 0.1706107373853764 0  0.2154508497187474 0.1524471741852423 0  0.1845491502812526 0.1524471741852423 0  0.1595491502812526 0.1706107373853764 0  0.15 0.2 0  0.1595491502812526 0.2293892626146237 0  0.1845491502812527 0.2475528258147577 0  0.2154508497187474 0.2475528258147577 0  0.5404508497187474 0.2293892626146237 0  0.55 0.2 0  0.5404508497187474 0.1706107373853764 0  0.5154508497187473 0.1524471741852423 0  0.4845491502812526 0.1524471741852423 0  0.4595491502812526 0.1706107373853764 0  0.45 0.2 0  0.4595491502812526 0.2293892626146237 0  0.4845491502812526 0.2475528258147577 0  0.5154508497187473 0.2475528258147577 0  1.1 0 0  0 0.205 0  1.1 0.41 0  0.55 0 0  0.55 0.41 0  0.275 0 0  0.275 0.41 0  1.65 0.41 0  1.65 0 0  1.375 0 0  1.375 0.41 0  1.925 0 0  1.925 0.41 0  0.8250000000000001 0.41 0  0.8250000000000001 0 0  1.5125 0.205 0  1.7875 0.205 0  0.9625000000000001 0.205 0  1.2375 0.205 0  2.2 0.205 0  0.7560964076246335 0.2151713709677419 0  1.99375 0.2152743902439024 0  2.0625 0 0  0.6875 0 0  2.0625 0.41 0  2.2 0.3075 0  0.6875 0.41 0  1.7875 0.41 0  1.375 0.1486128048780488 0  1.5125 0 0  1.7875 0 0  1.5125 0.41 0  0.9625000000000001 0 0  0.9625000000000001 0.41 0  0.4125 0 0  0.1375 0 0  0.1375 0.41 0  0.4125 0.41 0  1.2375 0 0  1.1 0.1486128048780487 0  1.2375 0.41 0  1.65 0.1486128048780487 0  1.126715909090909 0.2793064024390244 0  1.676715909090909 0.2793064024390244 0  1.348284090909091 0.2793064024390244 0  0.34375 0.3032389320646208 0  1.894702181800738 0.1282910975492754 0  2.092797818199262 0.1282910975492754 0  1.85625 0.3075 0  0.8630851210521902 0.286932093388664 0  0.89375 0.1025 0  0.35 0.1090282786671641 0  0 0.3075 0  0 0.1025 0  0.6526217841291382 0.288229645480046 0  0.7562500000000001 0.09660248895515888 0  0.6568633732316684 0.1557582854763441 0  2.099172119769978 0.25625 0  1.002356446954348 0.1010393851523063 0  1.99375 0.08395950269330846 0  1.459960956013612 0.3075 0  1.569025960719943 0.2986889805672169 0  1.03125 0.3278689922742084 0  0.75625 0.3247156761655783 0  1.959375 0.3126371951219512 0  1.749222215368287 0.1025 0  1.275777784631713 0.1025 0  2.2 0.1025 0  1.225938124459196 0.3075 0  1.550777784631713 0.1025 0  1.44375 0.07430640243902442 0  1.16875 0.07430640243902437 0  0.3528655045338512 0.2063263890916129 0  0.5890337614812103 0.08775733857679162 0  0.8504912436891263 0.190072835691683 0  1.899250267340833 0.2229966846119207 0  0.1020898364287272 0.3140258291809757 0  1.766482954545455 0.2934032012195123 0  1.051658316544432 0.2265720188842194 0  0.2 0.3400647632937836 0  1.421109702350723 0.2261157654379721 0  0.4812500000000001 0.41 0  0.4324401666997539 0.3216425986889796 0  0.098916018031319 0.09171660955420841 0  0.9508742791313441 0.2921736960864468 0  2.13125 0 0  2.118919042110979 0.3422084711244843 0  1.30625 0.41 0  0.20625 0 0  1.597888256393107 0.2173787389261347 0  0.4812500000000001 0 0  0.4324082967851086 0.08384041677422771 0  1.829299675393195 0.07400700849299596 0  0.568219932524165 0.3212274660843853 0  1.71875 0.41 0  0.268005226542646 0.08512186835670006 0  1.16875 0.41 0  2.038220665644273 0.332420740103091 0  0.6678017527842831 0.07701763866051195 0  0.89375 0.41 0  0.5111435174287687 0.07335351331957608 0  0.176193934632343 0.0734896648625108 0  0.07390688010811153 0.1697064032433452 0  0.05452951551825875 0.25625 0  0.61875 0.41 0  1.452769549894695 0.1548122580621249 0  1.369219062229598 0.07430640243902442 0  1.30625 0 0  1.720943423819132 0.1714577452753128 0  1.157188124459196 0.205 0  1.094219062229598 0.07430640243902437 0  1.304056576180868 0.1714577452753128 0  1.67579304192913 0.07430640243902437 0  0.2672907219039591 0.3037570723459566 0  1.209670467133757 0.1362100266964769 0  1.58125 0 0  1.03125 0 0  0.06875000000000001 0.41 0  0 0.35875 0  1.58125 0.41 0  1.631724228912893 0.3381867502687533 0  0.8240147050827157 0.1225233169495944 0  1.825608881788174 0.14499488549201 0  1.85625 0 0  1.44375 0 0  1.44375 0.41 0  1.85625 0.41 0  2.13125 0.41 0  0.7562500000000001 0.41 0  0.7562500000000001 0 0  0.89375 0 0  0.34375 0 0  0.34375 0.41 0  0.20625 0.41 0  0.06875000000000001 0 0  1.16875 0 0  1.03125 0.41 0  0.61875 0 0  1.71875 0 0  1.99375 0 0  1.99375 0.41 0  0.3972301426712326 0.2593842555611471 0  1.340625 0.3489494290853124 0  1.134375 0.3489494290853123 0  1.700180620188976 0.3438659752031281 0  0.5003922072260507 0.341765274319271 0  0.6212513815748759 0.2209216137134851 0  0.6885607720119526 0.215393731583638 0  1.033412357328477 0.1612902025713047 0  2.135782184673599 0.07126652247502523 0  1.668441847249787 0.2129203728327609 0  1.295782514339747 0.2378437748815763 0  1.409375 0.3520314716057996 0  2.129248544730567 0.1906135162504124 0  2.060771381434487 0.1989445750470348 0  2.013252586573865 0.1496169464686054 0  1.942766402200229 0.1734448904596831 0  1.895522487186454 0.06076163953489683 0  2.069553871656643 0.06605731020975725 0  0.9281250000000001 0.3539050257418612 0  1.274680914880868 0.3520219391081363 0  0.3030138498135347 0.2488370856812789 0  0.8223773249563684 0.341761430177996 0  0.9018164060227267 0.2326477848736739 0  0.8143027982392851 0.2440265179987191 0  0.7225087161029304 0.2699907246386231 0  1.614713220494657 0.09473434380863296 0  0.378125 0.3566194660323104 0  0.309375 0.3566194660323104 0  1.72990325744076 0.2380068107952482 0  0.6915936999299305 0.3429472631234433 0  0.6268087624932918 0.3466455500035671 0  1.356580098625191 0.2120393231351682 0  0.3060160055995138 0.1590148921620778 0  0.3954648733249218 0.156380553890791 0  2.034370752044885 0.2668681600792073 0  1.51768709249349 0.3426260931494756 0  1.561883724969884 0.1650446847858835 0  1.197344062229598 0.2523725417393646 0  0.9281250000000001 0.05124999999999999 0  1.804085235518364 0.3468178408964637 0  1.817887819205233 0.2589243285818559 0  0.9107805776841645 0.1653834539923287 0  1.905897727272727 0.3485060975609756 0  0 0.05125 0  0.844212276491354 0.0614201194265309 0  0.378125 0.05244637078450034 0  1.008571329007178 0.2705955969954818 0  0.7724048032149464 0.1559079561351474 0  0.7203054377831548 0.04941826955193545 0  1.192836486056382 0.3562350748565544 0  0.5967108020713719 0.1479294686523888 0  1.28257088594801 0.2944411014911587 0  0.7041890234548132 0.1222025174424443 0  1.474860187679412 0.2504218616229368 0  1.406767003493824 0.2829282258560709 0  0.3201325899091991 0.05890121548989159 0  0.5979220912872258 0.2727591995766724 0  1.845656689180403 0.1998310418452388 0  2.144958525570388 0.2909790873294231 0  2.2 0.15375 0  1.57794966442982 0.3540357145964566 0  0.9483181579620558 0.1214693369582054 0  0.0496154796471391 0.333125 0  1.508991196088596 0.1421783375065625 0  0.09776612425612034 0.2204896805326566 0  1.50436820029908 0.06143401634903343 0  1.223857000523521 0.0823554862453532 0  0.2531953886959507 0.3582003209055908 0  1.153316824384777 0.1289850171317837 0  2.148922302309752 0.1258841779285271 0  1.621993280276081 0.2841214267927899 0  1.550118654119087 0.2461998729100966 0  1.327182649291491 0.1216967252533594 0  1.753125 0.04556020050186112 0  1.271875 0.04556020050186116 0  0.9824282234771738 0.05051969257615314 0  1.039510847866381 0.05683351822678641 0  1.94956388244759 0.1180512551534177 0  1.949997712993411 0.04965831614304109 0  1.771961817615021 0.1530278789497521 0  1.909246823951428 0.2812757146784527 0  1.101974016627944 0.2038045618205013 0  0.7906250000000001 0.0444674049654372 0  1.948575539857022 0.2445328248721197 0  1.697271520964565 0.1233917627620729 0  1.065625 0.3689344961371042 0  1.085849084308977 0.3170853572226867 0  0.9840604787624379 0.3582077516409966 0  1.577403511714593 0.05463601888079143 0  0.05622663515370135 0.05493816910862376 0  0.8762396958822678 0.3392249777398821 0  1.751571320346033 0.3651102912045228 0  1.055327852410105 0.111864799513911 0  0.1583785085108421 0.2994699345738728 0  0.1455283439499995 0.3542795598723423 0  2.2 0.35875 0  0.225705107073232 0.05084786997482401 0  0.1455852234589313 0.1166494778469164 0  1.466879772203159 0.3611261772912453 0  1.990280163552011 0.3564754268533217 0  1.17471064520912 0.2990917256188288 0  0.7221925551074015 0.1739659241003985 0  0 0.25625 0  2.2 0.25625 0  2.2 0.05125 0  0 0.15375 0  1.853978576207987 0.35875 0  0.21965520498276 0.1015543880164422 0  1.515638456102889 0.2882700110184686 0  0.09048297387599738 0.3637717362208066 0  2.150453692751374 0.2387066338105111 0  1.323782677156475 0.04897634338873398 0  1.409375 0.03715320121951221 0  1.406484531114799 0.1087852750766809 0  1.134375 0.03715320121951218 0  1.627401732573545 0.04552157221025036 0  0.446875 0.3713289093361426 0  2.045405893604797 0.1105340662939892 0  1.255408269734577 0.1577307500159216 0  2.028125 0.03707597992059326 0  0.04420832937638274 0.128125 0  0.5817551710628505 0.3702615006034757 0  0.1197849154434487 0.2663398672460083 0  1.248258025468107 0.2565907092181813 0  0.1300647302703173 0.0508462728378621 0  0.7738123537510222 0.2761231499240648 0  1.203125 0.0366132337404304 0  0.5444207041612499 0.111205399508622 0  0.8016457771828226 0.1964238426015905 0  2.072662025974815 0.2975086504196739 0  0.4019040438866802 0.2103993403217561 0  0.4677372330974851 0.04827477407630658 0  0.8677218578847617 0.1432970430140788 0  1.058011122005847 0.2758866204059919 0  0.4429405887974043 0.2746184809910084 0  0.5843750000000001 0.03726989681835222 0  0.6318596133730142 0.1128692182767254 0  0.4862628454464408 0.2957029785303028 0  0.7805186758662764 0.3673578380827891 0  1.887722846421017 0.1760882698830035 0  0.3498893058880703 0.256189258793856 0  1.472640588990488 0.1118278026240017 0  1.865937103925594 0.2604137786483804 0
[...]
<PointData  Vectors="f_37"> 
<DataArray  type="Float64"  Name="f_37"  NumberOfComponents="3" format="ascii">-6.1438435408307592e-07 1.9998444847494012e-08 0.0000000000000000e+00  3.7361160784125743e-07 -3.0549693663736358e-08 0.0000000000000000e+00  -4.9768533369452929e-07 2.0419382179602807e-08 0.0000000000000000e+00  1.5941722668831198e-06 -1.4271049223106601e-08 0.0000000000000000e+00  -9.8556010588868828e-07 -6.4856395407877187e-09 0.0000000000000000e+00  -7.7453763195660236e-07 -3.8667565806495773e-08 0.0000000000000000e+00  -1.6506213531852086e-06 2.1112661114294533e-07 0.0000000000000000e+00  1.2101788869476780e-06 2.9894820540223981e-07 0.0000000000000000e+00  2.9559527373976702e-06 -4.6420462736011488e-07 0.0000000000000000e+00  -9.6916458233769809e-07 5.4549779742917683e-08 0.0000000000000000e+00  -1.7486552545668154e-06 1.1096295938924920e-06 0.0000000000000000e+00  6.4039564896775815e-07 2.1808928512909441e-06 0.0000000000000000e+00  -3.8374010017438860e-06 -1.3121180883364695e-06 0.0000000000000000e+00  -3.5934046822665643e-06 -7.9368374388647686e-07 0.0000000000000000e+00  -2.0450670081510182e-06 3.8762660264167907e-07 0.0000000000000000e+00  -1.4051550016715991e-06 1.7639792014928629e-06 0.0000000000000000e+00  -3.7805723156123086e-06 -5.2723754403152872e-09 0.0000000000000000e+00  -3.4839107946434428e-06 -2.0600899976935039e-07 0.0000000000000000e+00  -2.7723949458972888e-06 9.3961702808611171e-08 0.0000000000000000e+00  -6.6374856135240252e-07 -9.0113042015546206e-08 0.0000000000000000e+00  -1.1326688403082537e-06 2.9401609437141992e-07 0.0000000000000000e+00  -1.8059302787250122e-06 3.1172523795188025e-07 0.0000000000000000e+00  2.5108055210674117e-07 2.3606625490220998e-07 0.0000000000000000e+00  1.5915079693715547e-07 1.7563956310955366e-07 0.0000000000000000e+00  2.6144374371340524e-06 -3.0295139598838117e-07 0.0000000000000000e+00  1.5000025230281286e+00 1.0011108751837208e-08 0.0000000000000000e+00  -4.1100609129659779e-06 -3.8245356448718376e-07 0.0000000000000000e+00  -2.2741857465434571e-06 -1.1190082955975900e-07 0.0000000000000000e+00  -9.7206814302241729e-07 2.8275203635004032e-08 0.0000000000000000e+00  -2.7071377685820595e-06 9.4894887767647554e-08 0.0000000000000000e+00  -1.0119066876816072e-06 -2.1311411387133556e-08 0.0000000000000000e+00  2.0231390590316880e-06 2.4922674910920169e-07 0.0000000000000000e+00  -1.3183955791471903e-06 9.7890156473557852e-08 0.0000000000000000e+00  1.0980908187080044e-06 -2.0910969142245031e-07 0.0000000000000000e+00  2.9845461164716559e-06 -2.4861320731735607e-07 0.0000000000000000e+00  1.0668323109882623e-06 4.7061120362131293e-08 0.0000000000000000e+00  -1.7612026761505264e-06 -4.3945255124207256e-08 0.0000000000000000e+00  -4.3279536369190662e-07 1.5770237520525213e-07 0.0000000000000000e+00  -2.5270014632825520e-06 1.2141452841819921e-07 0.0000000000000000e+00  1.0384606972353110e+00 4.0311903777826832e-03 0.0000000000000000e+00  1.1428487366126241e+00 -5.4935540687165635e-02 0.0000000000000000e+00  6.3012262264722085e-01 -5.5982209139674756e-02 0.0000000000000000e+00  9.0946542398494434e-01 4.3711409010152295e-02 0.0000000000000000e+00  1.2700113045162178e+00 -7.0453045090429864e-02 0.0000000000000000e+00  2.1270370774290559e-01 -1.8849534169124393e-02 0.0000000000000000e+00  1.1877722701614195e+00 7.2248811130114374e-02 0.0000000000000000e+00  -1.3593756396137697e-06 -5.4248774686511097e-08 0.0000000000000000e+00  -8.5299596514422748e-07 -1.1319463727511202e-07 0.0000000000000000e+00  4.2391632993375782e-07 2.5059617459559024e-07 0.0000000000000000e+00  1.2315458006375291e+00 1.0340175690815356e-02 0.0000000000000000e+00  -9.8129806146327820e-07 -1.8718874059071009e-09 0.0000000000000000e+00  -7.8414213315673676e-07 -2.8382454283437290e-07 0.0000000000000000e+00  1.3033919651327712e+00 -5.3134815734952297e-03 0.0000000000000000e+00  3.4915811646732832e-06 -7.5898287547727309e-08 0.0000000000000000e+00  -5.0630190913734784e-07 -1.2016421242503453e-07 0.0000000000000000e+00  -1.9894885010275242e-06 -8.9002136102324090e-08 0.0000000000000000e+00  -3.5955244503189372e-06 9.3606630024544798e-08 0.0000000000000000e+00  2.0475559791882346e-06 9.6886223372361083e-08 0.0000000000000000e+00  -8.9034506458118040e-07 -1.9136840074016250e-08 0.0000000000000000e+00  3.0357402952318479e-07 6.4755097967560926e-08 0.0000000000000000e+00  5.9456107094539869e-07 1.3344411015507224e-07 0.0000000000000000e+00  -2.6006286276909636e-06 1.1534691778705044e-07 0.0000000000000000e+00  -1.2617779203659300e-06 3.6790577738103226e-07 0.0000000000000000e+00  1.4508151835750314e+00 4.9478231141075808e-02 0.0000000000000000e+00  1.1315918560905101e-06 5.1094993259038358e-07 0.0000000000000000e+00  1.2916535953425499e+00 1.3335041618044609e-02 0.0000000000000000e+00  1.5569487148469314e+00 -2.0630254347274377e-03 0.0000000000000000e+00  1.4777224272321310e+00 -2.2094474219970961e-02 0.0000000000000000e+00  1.5304100446067785e+00 -1.5141318588690670e-02 0.0000000000000000e+00  1.9608662900835099e+00 2.8922249841324334e-02 0.0000000000000000e+00  1.3867574928450830e+00 2.0873150797325463e-02 0.0000000000000000e+00  1.2503650833927322e+00 5.4292249739256180e-03 0.0000000000000000e+00  1.2901684881157591e+00 9.3200991003351899e-03 0.0000000000000000e+00  1.6794047652082416e+00 -1.1982460966404182e-01 0.0000000000000000e+00  1.5517228088794621e+00 6.2944222418762644e-02 0.0000000000000000e+00  1.8639763964275367e+00 8.7885225159470854e-03 0.0000000000000000e+00  1.1249986009916833e+00 -1.7639064251483886e-07 0.0000000000000000e+00  1.1250027057166030e+00 1.1172377834491414e-08 0.0000000000000000e+00  1.7652410765622006e+00 -1.6309840177092488e-01 0.0000000000000000e+00  1.6374723624100178e+00 1.4072735518215435e-01 0.0000000000000000e+00  7.5513753590252342e-01 1.0546706483088768e-01 0.0000000000000000e+00  1.4510065944604842e+00 -3.9383320590627449e-02 0.0000000000000000e+00  1.4999778842578364e+00 4.5617616044702325e-02 0.0000000000000000e+00  1.0976931535859966e+00 -2.9343430281064619e-03 0.0000000000000000e+00  1.3487377895385415e+00 1.7701750940306630e-02 0.0000000000000000e+00  1.4198459555066880e+00 -8.6916717561595306e-03 0.0000000000000000e+00  1.2342188110471768e+00 -4.8890069641050618e-03 0.0000000000000000e+00  1.5552239745658976e+00 -1.2115306139148901e-01 0.0000000000000000e+00  1.2700906450413538e+00 -4.6123651126989355e-03 0.0000000000000000e+00  1.3004100703877792e+00 5.3058351804140085e-03 0.0000000000000000e+00  1.3760562023249403e+00 -1.1277126865704371e-02 0.0000000000000000e+00  1.2427821469650426e+00 -4.0517931813716943e-03 0.0000000000000000e+00  1.4373438682188340e+00 -2.4378035448364969e-02 0.0000000000000000e+00  1.3149113735248581e+00 -5.7630870858203214e-03 0.0000000000000000e+00  1.0470723195710570e+00 3.7454933031598530e-03 0.0000000000000000e+00  1.0709481237715324e+00 -1.2062997957824697e-02 0.0000000000000000e+00  -3.3057685765078054e-01 -1.6839918777394818e-02 0.0000000000000000e+00  1.7803867339092929e+00 1.2433612847175464e-01 0.0000000000000000e+00  3.9625427220749254e-01 3.9722999758066389e-02 0.0000000000000000e+00  1.1614698029141930e+00 -3.1155486998236670e-03 0.0000000000000000e+00  1.1818969502214673e+00 2.5551493140267284e-01 0.0000000000000000e+00  1.3767821196689511e+00 7.9447459656317495e-03 0.0000000000000000e+00  9.5106207075086813e-01 -4.2773159220801459e-02 0.0000000000000000e+00  1.3811225934060860e+00 2.1757347324947440e-01 0.0000000000000000e+00  1.1532805709556906e+00 -4.1136611422004088e-02 0.0000000000000000e+00  9.3083187618306633e-07 -1.7048841091775174e-08 0.0000000000000000e+00  1.8376307808928998e+00 -6.1181798902913538e-02 0.0000000000000000e+00  1.1435256119401662e+00 -2.5631660144700047e-01 0.0000000000000000e+00  1.6053713138169341e+00 -6.7254912568239192e-02 0.0000000000000000e+00  -4.5833334491531159e-07 5.1942762837750122e-08 0.0000000000000000e+00  9.3623310040982777e-01 3.3167489935315556e-03 0.0000000000000000e+00  1.6354226007425636e-06 2.7518178324020262e-07 0.0000000000000000e+00  -6.9448804127503601e-06 2.7457731086056721e-07 0.0000000000000000e+00  1.0969572452321321e+00 4.1752517523161753e-02 0.0000000000000000e+00  8.4642923693752976e-07 -3.2444768347884772e-08 0.0000000000000000e+00  1.8274155370326159e+00 7.8194816540086670e-02 0.0000000000000000e+00  1.0149502651176492e+00 1.7323765982836215e-03 0.0000000000000000e+00  1.7917752286740087e+00 -1.1283173653515771e-01 0.0000000000000000e+00  -1.0685403134214540e-07 5.5369205393388849e-08 0.0000000000000000e+00  1.7977651469102980e+00 -1.4149471090016436e-01 0.0000000000000000e+00  -3.2554062768301216e-06 8.6375765453406810e-09 0.0000000000000000e+00  1.0559868174338085e+00 -5.4065446639533976e-03 0.0000000000000000e+00  1.6006891693816567e+00 1.3173722651569450e-01 0.0000000000000000e+00  -3.2366662058779132e-07 3.0902095877233060e-07 0.0000000000000000e+00  1.7231134493555955e+00 7.5726567540999101e-02 0.0000000000000000e+00  1.3595490592066639e+00 -3.0230094710528893e-01 0.0000000000000000e+00  1.3399671689724020e+00 -1.2272840261286194e-01 0.0000000000000000e+00  1.3729865158664876e+00 1.2473694187333177e-01 0.0000000000000000e+00  -2.5288913439568924e-07 -1.3589614206633668e-08 0.0000000000000000e+00  1.3228099029778466e+00 6.5165164775066375e-03 0.0000000000000000e+00  1.0702614529949663e+00 6.2114060070735467e-03 0.0000000000000000e+00  -2.0538901584353970e-06 6.4583515341205761e-08 0.0000000000000000e+00  1.1398587574434300e+00 -8.2976143711598251e-03 0.0000000000000000e+00  8.4351218789352655e-01 4.4294124983488781e-02 0.0000000000000000e+00  1.0955441555387198e+00 9.2103854395319835e-03 0.0000000000000000e+00  1.0471526644487417e+00 8.3591791027369973e-03 0.0000000000000000e+00  1.0410809248502861e+00 -9.6410204957909538e-04 0.0000000000000000e+00  1.9204634712549447e+00 1.8435047045846756e-01 0.0000000000000000e+00  1.4537165971136394e+00 8.2528359791895038e-03 0.0000000000000000e+00  2.3397302726725123e-06 1.5550991073156659e-07 0.0000000000000000e+00  2.8393579159695141e-07 -2.4097080978173215e-07 0.0000000000000000e+00  -8.0769117131279758e-07 -5.7852226857369747e-08 0.0000000000000000e+00  6.5625203835733681e-01 1.3454944996003642e-08 0.0000000000000000e+00  -1.3922720006255125e-06 9.3639396400189560e-08 0.0000000000000000e+00  1.0008826402768947e+00 -3.6650949771617034e-03 0.0000000000000000e+00  1.6065263635253690e+00 1.1740393342197906e-01 0.0000000000000000e+00  1.3598719216844510e+00 1.0097024773874847e-03 0.0000000000000000e+00  4.3744124561283071e-07 -1.3851058007847027e-07 0.0000000000000000e+00  -1.5467803963456523e-06 -3.2108668675453501e-07 0.0000000000000000e+00  -2.0040892418382596e-06 -2.2878412395143949e-07 0.0000000000000000e+00  -2.6848270781874546e-06 -1.4006310428872908e-07 0.0000000000000000e+00  6.8652288345484675e-07 -2.7607070725193914e-08 0.0000000000000000e+00  -1.3456808389481918e-06 -2.1457355928736603e-08 0.0000000000000000e+00  -1.3801047472413952e-06 -1.9351426172099909e-07 0.0000000000000000e+00  -2.7662166916468930e-06 2.3302934088877344e-07 0.0000000000000000e+00  7.6410638533583818e-08 2.2456151546999654e-09 0.0000000000000000e+00  4.7922429911111098e-07 1.6119983250876405e-08 0.0000000000000000e+00  1.1916387078784863e-06 -8.2626149658338305e-08 0.0000000000000000e+00  -8.1763022093761873e-07 1.4282654159309479e-07 0.0000000000000000e+00  2.2219977707659001e-06 1.8061077301705824e-08 0.0000000000000000e+00  -1.9679734568079194e-06 -4.1441846368470815e-07 0.0000000000000000e+00  -2.5498326647750398e-06 -2.4949824103314189e-07 0.0000000000000000e+00  -3.3956471078613563e-06 -3.6783203014307023e-08 0.0000000000000000e+00  -1.3751747083121479e-06 8.2330831292603330e-08 0.0000000000000000e+00  -3.3577427964911519e-06 6.1067706718339903e-08 0.0000000000000000e+00  7.2551657282150228e-01 -4.5621371204119507e-02 0.0000000000000000e+00  8.4305759479256215e-01 9.1904247630501014e-03 0.0000000000000000e+00  8.8633308416971601e-01 -3.7190716034657775e-04 0.0000000000000000e+00  9.1909601686980880e-01 5.9671794882228341e-03 0.0000000000000000e+00  1.6548986104964440e+00 -6.8994636641337190e-02 0.0000000000000000e+00  3.7588998204415251e-05 -1.8055099115853269e-02 0.0000000000000000e+00  2.7378794344154793e-02 -3.1688504560770228e-02 0.0000000000000000e+00  1.2280820618488013e+00 3.0190367611926824e-02 0.0000000000000000e+00  9.7678540080627929e-01 -1.3963256859434508e-03 0.0000000000000000e+00  1.1374069064443773e+00 1.5795817771829652e-02 0.0000000000000000e+00  1.3094675495128012e+00 -2.9988431307930649e-02 0.0000000000000000e+00  8.1160782313731650e-01 1.3690037343238046e-02 0.0000000000000000e+00  1.2211740399690363e+00 -2.5825666660459302e-02 0.0000000000000000e+00  1.1958708803393905e+00 5.5253218740961903e-02 0.0000000000000000e+00  1.2946126472070014e+00 3.2210196518941248e-02 0.0000000000000000e+00  1.2933904916247023e+00 4.1962186357747545e-02 0.0000000000000000e+00  8.5298543822412520e-01 -3.2201906061432918e-03 0.0000000000000000e+00  9.1934459536069224e-01 -1.2637389722269376e-04 0.0000000000000000e+00  8.6928774256956021e-01 -2.3052948191674701e-02 0.0000000000000000e+00  7.9974842280655478e-01 -1.3824516510910928e-03 0.0000000000000000e+00  2.3257070620858114e-01 5.1754247135083045e-02 0.0000000000000000e+00  1.2305912751612964e+00 -7.6021719849019245e-02 0.0000000000000000e+00  1.0186626494376538e+00 -8.5013532624141977e-02 0.0000000000000000e+00  1.1110935518535270e+00 -1.0098492722161334e-01 0.0000000000000000e+00  1.5467862631219622e+00 -1.5815584352459802e-01 0.0000000000000000e+00  1.2417325480488142e+00 -9.9312973314742148e-03 0.0000000000000000e+00  1.5329775053009027e+00 -2.6593305942519688e-02 0.0000000000000000e+00  1.4840514804480796e+00 3.1826101569440657e-02 0.0000000000000000e+00  1.3349237438221822e+00 -3.1677084693886352e-02 0.0000000000000000e+00  1.4313797041438605e+00 -1.0608394269193365e-01 0.0000000000000000e+00  1.4825405164567984e+00 -1.0129030936760978e-01 0.0000000000000000e+00  1.0560971953882030e+00 -4.1953396697836209e-02 0.0000000000000000e+00  7.9469992021355740e-02 -5.4423457353166400e-02 0.0000000000000000e+00  2.8570431740197072e-01 2.1594890544101460e-02 0.0000000000000000e+00  1.4300796957021042e+00 -5.6889809515569094e-03 0.0000000000000000e+00  9.6101563180714444e-01 1.7689462618835376e-03 0.0000000000000000e+00  1.2688447904731588e+00 3.2549069363368308e-02 0.0000000000000000e+00  1.3824134577851450e+00 -5.0800645264662903e-03 0.0000000000000000e+00  7.9743134096464763e-01 1.6239233958749093e-02 0.0000000000000000e+00  8.9855277248497167e-01 9.0889166826053427e-03 0.0000000000000000e+00  1.3604243488193166e+00 -9.1661236838942017e-03 0.0000000000000000e+00  9.6385000035892088e-01 4.0717265440455556e-02 0.0000000000000000e+00  8.8426326444959236e-01 5.1727798545491300e-04 0.0000000000000000e+00  6.5624905423297208e-01 8.3511432748968321e-08 0.0000000000000000e+00  1.0811146987071272e+00 4.6275188164137816e-02 0.0000000000000000e+00  1.5686057697205171e+00 3.6963625387461632e-02 0.0000000000000000e+00  1.5643132824244053e+00 -4.1316850686186263e-02 0.0000000000000000e+00  1.0476393324715747e+00 1.3863604026417414e-01 0.0000000000000000e+00  1.0665060758702574e+00 7.1899341238052625e-02 0.0000000000000000e+00  7.5133930357420953e-01 -3.9442727523230576e-03 0.0000000000000000e+00  8.1100218570084259e-01 8.5948542447654125e-02 0.0000000000000000e+00  1.5137251916002121e+00 -2.6921787441217104e-02 0.0000000000000000e+00  1.6587480583734080e+00 1.7668191791087845e-01 0.0000000000000000e+00  1.3159429661846913e+00 -3.8818518578894868e-03 0.0000000000000000e+00  1.4815915525299450e+00 9.6288194464746995e-03 0.0000000000000000e+00  1.6079543642595278e+00 -1.7538762242291457e-02 0.0000000000000000e+00  1.4940452289760711e+00 -1.3782681463504551e-01 0.0000000000000000e+00  1.1463103367106211e+00 -4.2771162182804516e-02 0.0000000000000000e+00  1.3413462929596351e+00 -6.5859729703320992e-03 0.0000000000000000e+00  1.2424412391051016e+00 -5.8470866562474348e-02 0.0000000000000000e+00  7.9334029905437953e-01 -2.3562944305803076e-03 0.0000000000000000e+00  1.5877182678223851e+00 5.1735506941965277e-02 0.0000000000000000e+00  9.4150735893927928e-01 9.3637100160859313e-02 0.0000000000000000e+00  1.4227037557358666e+00 2.3122770861109674e-02 0.0000000000000000e+00  1.2233779508947435e+00 1.6069649412993281e-01 0.0000000000000000e+00  8.6175330701499020e-01 -6.3076569993638729e-03 0.0000000000000000e+00  1.1785101143789585e+00 -1.6916051856420679e-02 0.0000000000000000e+00  1.3609469626965129e+00 9.6517246995883460e-02 0.0000000000000000e+00  1.5217204643694178e+00 2.3660744613586374e-02 0.0000000000000000e+00  1.2521604404731304e+00 -1.7966814747926670e-02 0.0000000000000000e+00  1.4758980159652302e+00 -1.7491532260807525e-02 0.0000000000000000e+00  1.2615605521175812e+00 1.2539190396703861e-02 0.0000000000000000e+00  1.4365980291491609e+00 -9.4927846500238936e-04 0.0000000000000000e+00  6.5910302429554335e-01 2.1357777693500611e-04 0.0000000000000000e+00  6.3961496766477022e-01 -7.4419863125079339e-03 0.0000000000000000e+00  7.4416020337270106e-01 1.2472087587946115e-02 0.0000000000000000e+00  8.2685506906014616e-01 1.1777398911314166e-02 0.0000000000000000e+00  1.3193071022083482e+00 5.6354010619011604e-03 0.0000000000000000e+00  7.1885770044622121e-01 -2.9689465878607467e-03 0.0000000000000000e+00  1.2671737315156448e+00 -1.8434189857876988e-02 0.0000000000000000e+00  1.3625834853000489e+00 6.7606756298296319e-03 0.0000000000000000e+00  7.9406393101001993e-01 6.5645941085320072e-03 0.0000000000000000e+00  8.1778330237064312e-01 4.0155305224940117e-02 0.0000000000000000e+00  1.2397972918282341e+00 3.0524523573469128e-02 0.0000000000000000e+00  1.3502335389147277e+00 4.1561940571218198e-05 0.0000000000000000e+00  5.5412541446231256e-01 5.5134138199641070e-03 0.0000000000000000e+00  1.3579720391126022e+00 -1.6827336182244637e-05 0.0000000000000000e+00  7.5296437988432485e-01 -4.7758833180779371e-03 0.0000000000000000e+00  7.7860739582504068e-01 -8.3200002854278594e-03 0.0000000000000000e+00  7.3879894559039549e-01 -7.9156721698455737e-02 0.0000000000000000e+00  1.1926842967804716e+00 -5.9875853459874194e-02 0.0000000000000000e+00  6.4657420463717219e-01 6.4453069036189024e-03 0.0000000000000000e+00  1.5484385550865820e+00 4.5284593456751565e-02 0.0000000000000000e+00  1.5284814625927283e+00 4.7611508376126838e-01 0.0000000000000000e+00  1.0046624062075067e+00 1.8218433551686350e-01 0.0000000000000000e+00  7.5265176195345762e-01 3.6531182515700845e-03 0.0000000000000000e+00  1.3189084600620766e+00 -1.2569583296117820e-01 0.0000000000000000e+00  1.4488205339254636e+00 -5.4603418663895997e-01 0.0000000000000000e+00  6.9176092607764272e-01 7.4217193487301856e-03 0.0000000000000000e+00  7.7513017738759060e-01 -1.2088378509187761e-03 0.0000000000000000e+00  1.5146237510227201e+00 -1.6266564651953194e-02 0.0000000000000000e+00  4.0426321944262161e-01 8.8222581725289628e-02 0.0000000000000000e+00  1.4062539938097112e+00 1.1827266981236098e-07 0.0000000000000000e+00  1.3769588953150931e+00 -1.8139059518705807e-02 0.0000000000000000e+00  7.4247030883370824e-01 -9.4368433508388173e-04 0.0000000000000000e+00  1.4062505921956041e+00 3.1268450237209913e-08 0.0000000000000000e+00  7.4905916064869060e-01 3.7932991805124097e-03 0.0000000000000000e+00  1.8371391505544188e+00 -3.2986816201011310e-01 0.0000000000000000e+00  1.4453783977210979e+00 6.9247415473177188e-03 0.0000000000000000e+00  7.1444709046206678e-01 9.8583749627015146e-02 0.0000000000000000e+00  1.4022813018838718e+00 -4.8523406169453900e-02 0.0000000000000000e+00  6.9457019672331999e-01 -1.4881672625344769e-03 0.0000000000000000e+00  5.1415336482829888e-01 7.7635226731181907e-04 0.0000000000000000e+00  1.4178267964309073e+00 1.5648921310140371e-02 0.0000000000000000e+00  4.7705469548448959e-01 -5.1757443480066551e-03 0.0000000000000000e+00  6.5880477067825216e-01 -4.2421441371824232e-03 0.0000000000000000e+00  1.3062705883100632e+00 -4.