<?xml version="1.0"?>
<VTKFile type="UnstructuredGrid"  version="0.1"  >
<UnstructuredGrid>
<Piece  NumberOfPoints="2426" NumberOfCells="4534">
<Points>
<DataArray  type="Float64"  NumberOfComponents="3"  format="ascii">0 0.41 0  0 0 0  2.2 0 0  2.2 0.41 0  0.2404508497187474 0.2293892626146237 0  0.25 0.2 0  0.2404508497187474 0.1706107373853764 0  0.2154508497187474 0.1524471741852423 0  0.1845491502812526 0.1524471741852423 0  0.1595491502812526 0.1706107373853764 0  0.15 0.2 0  0.1595491502812526 0.2293892626146237 0  0.1845491502812527 0.2475528258147577 0  0.2154508497187474 0.2475528258147577 0  0.5404508497187474 0.2293892626146237 0  0.55 0.2 0  0.5404508497187474 0.1706107373853764 0  0.5154508497187473 0.1524471741852423 0  0.4845491502812526 0.1524471741852423 0  0.4595491502812526 0.1706107373853764 0  0.45 0.2 0  0.4595491502812526 0.2293892626146237 0  0.4845491502812526 0.2475528258147577 0  0.5154508497187473 0.2475528258147577 0  1.1 0 0  0 0.205 0  1.1 0.41 0  0.55 0 0  0.55 0.41 0  0.275 0 0  0.275 0.41 0  1.65 0.41 0  1.65 0 0  1.375 0 0  1.375 0.41 0  1.925 0 0  1.925 0.41 0  0.8250000000000001 0.41 0  0.8250000000000001 0 0  1.5125 0.205 0  1.7875 0.205 0  0.9625000000000001 0.205 0  1.2375 0.205 0  2.2 0.205 0  0.7560964076246335 0.2151713709677419 0  1.99375 0.2152743902439024 0  2.0625 0 0  0.6875 0 0  2.0625 0.41 0  2.2 0.3075 0  0.6875 0.41 0  1.7875 0.41 0  1.375 0.1486128048780488 0  1.5125 0 0  1.7875 0 0  1.5125 0.41 0  0.9625000000000001 0 0  0.9625000000000001 0.41 0  0.4125 0 0  0.1375 0 0  0.1375 0.41 0  0.4125 0.41 0  1.2375 0 0  1.1 0.1486128048780487 0  1.2375 0.41 0  1.65 0.1486128048780487 0  1.126715909090909 0.2793064024390244 0  1.676715909090909 0.2793064024390244 0  1.348284090909091 0.2793064024390244 0  0.34375 0.3032389320646208 0  1.894702181800738 0.1282910975492754 0  2.092797818199262 0.1282910975492754 0  1.85625 0.3075 0  0.8630851210521902 0.286932093388664 0  0.89375 0.1025 0  0.35 0.1090282786671641 0  0 0.3075 0  0 0.1025 0  0.6526217841291382 0.288229645480046 0  0.7562500000000001 0.09660248895515888 0  0.6568633732316684 0.1557582854763441 0  2.099172119769978 0.25625 0  1.002356446954348 0.1010393851523063 0  1.99375 0.08395950269330846 0  1.459960956013612 0.3075 0  1.569025960719943 0.2986889805672169 0  1.03125 0.3278689922742084 0  0.75625 0.3247156761655783 0  1.959375 0.3126371951219512 0  1.749222215368287 0.1025 0  1.275777784631713 0.1025 0  2.2 0.1025 0  1.225938124459196 0.3075 0  1.550777784631713 0.1025 0  1.44375 0.07430640243902442 0  1.16875 0.07430640243902437 0  0.3528655045338512 0.2063263890916129 0  0.5890337614812103 0.08775733857679162 0  0.8504912436891263 0.190072835691683 0  1.899250267340833 0.2229966846119207 0  0.1020898364287272 0.3140258291809757 0  1.766482954545455 0.2934032012195123 0  1.051658316544432 0.2265720188842194 0  0.2 0.3400647632937836 0  1.421109702350723 0.2261157654379721 0  0.4812500000000001 0.41 0  0.4324401666997539 0.3216425986889796 0  0.098916018031319 0.09171660955420841 0  0.9508742791313441 0.2921736960864468 0  2.13125 0 0  2.118919042110979 0.3422084711244843 0  1.30625 0.41 0  0.20625 0 0  1.597888256393107 0.2173787389261347 0  0.4812500000000001 0 0  0.4324082967851086 0.08384041677422771 0  1.829299675393195 0.07400700849299596 0  0.568219932524165 0.3212274660843853 0  1.71875 0.41 0  0.268005226542646 0.08512186835670006 0  1.16875 0.41 0  2.038220665644273 0.332420740103091 0  0.6678017527842831 0.07701763866051195 0  0.89375 0.41 0  0.5111435174287687 0.07335351331957608 0  0.176193934632343 0.0734896648625108 0  0.07390688010811153 0.1697064032433452 0  0.05452951551825875 0.25625 0  0.61875 0.41 0  1.452769549894695 0.1548122580621249 0  1.369219062229598 0.07430640243902442 0  1.30625 0 0  1.720943423819132 0.1714577452753128 0  1.157188124459196 0.205 0  1.094219062229598 0.07430640243902437 0  1.304056576180868 0.1714577452753128 0  1.67579304192913 0.07430640243902437 0  0.2672907219039591 0.3037570723459566 0  1.209670467133757 0.1362100266964769 0  1.58125 0 0  1.03125 0 0  0.06875000000000001 0.41 0  0 0.35875 0  1.58125 0.41 0  1.631724228912893 0.3381867502687533 0  0.8240147050827157 0.1225233169495944 0  1.825608881788174 0.14499488549201 0  1.85625 0 0  1.44375 0 0  1.44375 0.41 0  1.85625 0.41 0  2.13125 0.41 0  0.7562500000000001 0.41 0  0.7562500000000001 0 0  0.89375 0 0  0.34375 0 0  0.34375 0.41 0  0.20625 0.41 0  0.06875000000000001 0 0  1.16875 0 0  1.03125 0.41 0  0.61875 0 0  1.71875 0 0  1.99375 0 0  1.99375 0.41 0  0.3972301426712326 0.2593842555611471 0  1.340625 0.3489494290853124 0  1.134375 0.3489494290853123 0  1.700180620188976 0.3438659752031281 0  0.5003922072260507 0.341765274319271 0  0.6212513815748759 0.2209216137134851 0  0.6885607720119526 0.215393731583638 0  1.033412357328477 0.1612902025713047 0  2.135782184673599 0.07126652247502523 0  1.668441847249787 0.2129203728327609 0  1.295782514339747 0.2378437748815763 0  1.409375 0.3520314716057996 0  2.129248544730567 0.1906135162504124 0  2.060771381434487 0.1989445750470348 0  2.013252586573865 0.1496169464686054 0  1.942766402200229 0.1734448904596831 0  1.895522487186454 0.06076163953489683 0  2.069553871656643 0.06605731020975725 0  0.9281250000000001 0.3539050257418612 0  1.274680914880868 0.3520219391081363 0  0.3030138498135347 0.2488370856812789 0  0.8223773249563684 0.341761430177996 0  0.9018164060227267 0.2326477848736739 0  0.8143027982392851 0.2440265179987191 0  0.7225087161029304 0.2699907246386231 0  1.614713220494657 0.09473434380863296 0  0.378125 0.3566194660323104 0  0.309375 0.3566194660323104 0  1.72990325744076 0.2380068107952482 0  0.6915936999299305 0.3429472631234433 0  0.6268087624932918 0.3466455500035671 0  1.356580098625191 0.2120393231351682 0  0.3060160055995138 0.1590148921620778 0  0.3954648733249218 0.156380553890791 0  2.034370752044885 0.2668681600792073 0  1.51768709249349 0.3426260931494756 0  1.561883724969884 0.1650446847858835 0  1.197344062229598 0.2523725417393646 0  0.9281250000000001 0.05124999999999999 0  1.804085235518364 0.3468178408964637 0  1.817887819205233 0.2589243285818559 0  0.9107805776841645 0.1653834539923287 0  1.905897727272727 0.3485060975609756 0  0 0.05125 0  0.844212276491354 0.0614201194265309 0  0.378125 0.05244637078450034 0  1.008571329007178 0.2705955969954818 0  0.7724048032149464 0.1559079561351474 0  0.7203054377831548 0.04941826955193545 0  1.192836486056382 0.3562350748565544 0  0.5967108020713719 0.1479294686523888 0  1.28257088594801 0.2944411014911587 0  0.7041890234548132 0.1222025174424443 0  1.474860187679412 0.2504218616229368 0  1.406767003493824 0.2829282258560709 0  0.3201325899091991 0.05890121548989159 0  0.5979220912872258 0.2727591995766724 0  1.845656689180403 0.1998310418452388 0  2.144958525570388 0.2909790873294231 0  2.2 0.15375 0  1.57794966442982 0.3540357145964566 0  0.9483181579620558 0.1214693369582054 0  0.0496154796471391 0.333125 0  1.508991196088596 0.1421783375065625 0  0.09776612425612034 0.2204896805326566 0  1.50436820029908 0.06143401634903343 0  1.223857000523521 0.0823554862453532 0  0.2531953886959507 0.3582003209055908 0  1.153316824384777 0.1289850171317837 0  2.148922302309752 0.1258841779285271 0  1.621993280276081 0.2841214267927899 0  1.550118654119087 0.2461998729100966 0  1.327182649291491 0.1216967252533594 0  1.753125 0.04556020050186112 0  1.271875 0.04556020050186116 0  0.9824282234771738 0.05051969257615314 0  1.039510847866381 0.05683351822678641 0  1.94956388244759 0.1180512551534177 0  1.949997712993411 0.04965831614304109 0  1.771961817615021 0.1530278789497521 0  1.909246823951428 0.2812757146784527 0  1.101974016627944 0.2038045618205013 0  0.7906250000000001 0.0444674049654372 0  1.948575539857022 0.2445328248721197 0  1.697271520964565 0.1233917627620729 0  1.065625 0.3689344961371042 0  1.085849084308977 0.3170853572226867 0  0.9840604787624379 0.3582077516409966 0  1.577403511714593 0.05463601888079143 0  0.05622663515370135 0.05493816910862376 0  0.8762396958822678 0.3392249777398821 0  1.751571320346033 0.3651102912045228 0  1.055327852410105 0.111864799513911 0  0.1583785085108421 0.2994699345738728 0  0.1455283439499995 0.3542795598723423 0  2.2 0.35875 0  0.225705107073232 0.05084786997482401 0  0.1455852234589313 0.1166494778469164 0  1.466879772203159 0.3611261772912453 0  1.990280163552011 0.3564754268533217 0  1.17471064520912 0.2990917256188288 0  0.7221925551074015 0.1739659241003985 0  0 0.25625 0  2.2 0.25625 0  2.2 0.05125 0  0 0.15375 0  1.853978576207987 0.35875 0  0.21965520498276 0.1015543880164422 0  1.515638456102889 0.2882700110184686 0  0.09048297387599738 0.3637717362208066 0  2.150453692751374 0.2387066338105111 0  1.323782677156475 0.04897634338873398 0  1.409375 0.03715320121951221 0  1.406484531114799 0.1087852750766809 0  1.134375 0.03715320121951218 0  1.627401732573545 0.04552157221025036 0  0.446875 0.3713289093361426 0  2.045405893604797 0.1105340662939892 0  1.255408269734577 0.1577307500159216 0  2.028125 0.03707597992059326 0  0.04420832937638274 0.128125 0  0.5817551710628505 0.3702615006034757 0  0.1197849154434487 0.2663398672460083 0  1.248258025468107 0.2565907092181813 0  0.1300647302703173 0.0508462728378621 0  0.7738123537510222 0.2761231499240648 0  1.203125 0.0366132337404304 0  0.5444207041612499 0.111205399508622 0  0.8016457771828226 0.1964238426015905 0  2.072662025974815 0.2975086504196739 0  0.4019040438866802 0.2103993403217561 0  0.4677372330974851 0.04827477407630658 0  0.8677218578847617 0.1432970430140788 0  1.058011122005847 0.2758866204059919 0  0.4429405887974043 0.2746184809910084 0  0.5843750000000001 0.03726989681835222 0  0.6318596133730142 0.1128692182767254 0  0.4862628454464408 0.2957029785303028 0  0.7805186758662764 0.3673578380827891 0  1.887722846421017 0.1760882698830035 0  0.3498893058880703 0.256189258793856 0  1.472640588990488 0.1118278026240017 0  1.865937103925594 0.2604137786483804 0
[...]
<PointData  Vectors="f_37"> 
<DataArray  type="Float64"  Name="f_37"  NumberOfComponents="3" format="ascii">-5.5994888589851996e-07 2.4420207118569088e-08 0.0000000000000000e+00  3.1685195657069277e-07 -1.4617521077921911e-08 0.0000000000000000e+00  -1.7638795467578305e-07 -2.1070052914762780e-09 0.0000000000000000e+00  1.5750890913059770e-06 -5.7851978137288957e-09 0.0000000000000000e+00  -4.5966410541624493e-06 2.0788376505177136e-06 0.0000000000000000e+00  -6.6859825014417793e-06 5.8445139324657189e-06 0.0000000000000000e+00  -5.7678559835944379e-06 3.4294406131987652e-06 0.0000000000000000e+00  2.2249296565756534e-06 -2.9575700950260796e-09 0.0000000000000000e+00  1.9361531921471963e-06 -2.0725238903452203e-06 0.0000000000000000e+00  -2.8196309741671357e-06 1.1502933983297336e-06 0.0000000000000000e+00  -1.7942638772606558e-06 3.1518093854668072e-06 0.0000000000000000e+00  4.3330000254230509e-06 2.4470446007384251e-06 0.0000000000000000e+00  -7.2889579242898736e-07 -2.7746001403174863e-06 0.0000000000000000e+00  -3.1458312812269251e-06 -2.6247257253625446e-06 0.0000000000000000e+00  6.6868206718385086e-06 8.1825002053219621e-06 0.0000000000000000e+00  -7.7658627976602902e-06 1.5554632676824981e-06 0.0000000000000000e+00  -1.4399676195727825e-06 -5.6229286487910252e-06 0.0000000000000000e+00  -2.6240773942312467e-06 -5.8576118479029243e-06 0.0000000000000000e+00  -2.8556592750449868e-05 2.6118451772174664e-06 0.0000000000000000e+00  4.4162358456736145e-06 2.9292659134432451e-06 0.0000000000000000e+00  2.2724503630121698e-05 -3.1950786995524023e-06 0.0000000000000000e+00  1.1725110013353035e-05 -4.8876885607476233e-06 0.0000000000000000e+00  -4.3679697915704090e-05 -1.8224021387328597e-06 0.0000000000000000e+00  -1.7197104099239403e-05 3.9872408398842907e-06 0.0000000000000000e+00  -1.2585157687269189e-06 1.8679032276674354e-08 0.0000000000000000e+00  1.5000026880349537e+00 6.5232385387377389e-07 0.0000000000000000e+00  -2.4620612121225674e-06 -8.8409878126091796e-09 0.0000000000000000e+00  2.2432610703273187e-06 -1.2743209285825102e-06 0.0000000000000000e+00  3.2409428013567223e-06 1.2683313419662612e-06 0.0000000000000000e+00  -3.9854491583708969e-06 3.2461019377437907e-07 0.0000000000000000e+00  -2.7882996425804719e-06 -2.1704495169817527e-07 0.0000000000000000e+00  5.3276915452306987e-07 1.6660757669113759e-09 0.0000000000000000e+00  2.6224122739476749e-07 -3.6092251183890903e-09 0.0000000000000000e+00  3.2840046623805156e-06 -4.9364458907155968e-09 0.0000000000000000e+00  2.1288467314157162e-06 1.2789683869012116e-08 0.0000000000000000e+00  7.6557971426656447e-07 1.0713515416441547e-08 0.0000000000000000e+00  -8.9312843514760639e-07 -5.0285445673125588e-09 0.0000000000000000e+00  3.6647646983701327e-06 6.9787519911112135e-07 0.0000000000000000e+00  2.8777221597691771e-06 -9.1095884465815025e-07 0.0000000000000000e+00  1.1333928548050338e+00 2.6321094255547472e-06 0.0000000000000000e+00  1.1332906699620313e+00 -2.8539214869193699e-05 0.0000000000000000e+00  1.0684712541941876e+00 -1.1823081447599524e-02 0.0000000000000000e+00  1.1336288205358567e+00 -8.8371966552674237e-04 0.0000000000000000e+00  1.1331479831847946e+00 -7.2638162782918797e-06 0.0000000000000000e+00  3.2529730425213410e-01 -1.6251316677978783e-01 0.0000000000000000e+00  1.1333220537439546e+00 -4.3339233873336760e-05 0.0000000000000000e+00  -3.0970557960093577e-06 9.8017245042303279e-09 0.0000000000000000e+00  -6.2694717373610174e-06 9.9704961435763057e-07 0.0000000000000000e+00  -1.3892158924264928e-06 -8.5178938045935472e-09 0.0000000000000000e+00  1.1320695942499726e+00 3.0818415516099212e-05 0.0000000000000000e+00  -3.0649952084044293e-06 -1.3931842128213657e-06 0.0000000000000000e+00  -6.6539887588657569e-07 1.6763113894350273e-09 0.0000000000000000e+00  1.1332312941449514e+00 -1.6740874077835364e-04 0.0000000000000000e+00  3.7142681898000394e-06 2.7801719021194676e-10 0.0000000000000000e+00  -3.2046276778122937e-07 -1.0446743226705844e-08 0.0000000000000000e+00  8.7533501068207546e-07 1.4895320609739681e-08 0.0000000000000000e+00  -8.3384166137026025e-06 5.5008141870785852e-07 0.0000000000000000e+00  -5.2836031816928527e-06 -3.8618221025958739e-07 0.0000000000000000e+00  -1.5540707100744541e-06 5.0920585164346624e-07 0.0000000000000000e+00  -3.2224563126783616e-08 8.4786743069643364e-08 0.0000000000000000e+00  6.5763022635236445e-07 1.0114389053423601e-07 0.0000000000000000e+00  -4.7960749376803891e-06 3.6034868961156634e-07 0.0000000000000000e+00  1.1626724023363284e-06 -5.1733703812313364e-09 0.0000000000000000e+00  1.1335692755465838e+00 -3.8215794192253622e-03 0.0000000000000000e+00  -4.7168897683695654e-07 -1.3032205504835666e-08 0.0000000000000000e+00  1.1333591387797355e+00 1.8864012912103682e-06 0.0000000000000000e+00  1.1376021984232643e+00 -3.6817941080797883e-04 0.0000000000000000e+00  1.1332033176004586e+00 1.0374968999657923e-04 0.0000000000000000e+00  1.1334061987140762e+00 -1.5372042738663307e-04 0.0000000000000000e+00  2.0278270529956099e+00 5.2247294296871492e-02 0.0000000000000000e+00  1.1331450541249590e+00 -6.6402614632291832e-05 0.0000000000000000e+00  1.1331785756074790e+00 -1.2244902824942153e-04 0.0000000000000000e+00  1.1319467647405212e+00 4.1220393939139131e-07 0.0000000000000000e+00  1.2899267510137102e+00 -9.4908393963256829e-02 0.0000000000000000e+00  1.2622561348585757e+00 3.2854330352681684e-02 0.0000000000000000e+00  1.9261138905627742e+00 3.9939351029422560e-03 0.0000000000000000e+00  1.1249986547344102e+00 7.3415256414229897e-09 0.0000000000000000e+00  1.1250030653616041e+00 3.5860610631159670e-07 0.0000000000000000e+00  1.7712880420497930e+00 -8.2312244960822137e-02 0.0000000000000000e+00  1.4782147319167098e+00 1.7024645521323001e-01 0.0000000000000000e+00  6.9716780984753735e-01 4.3560744686080316e-02 0.0000000000000000e+00  1.1332967944982288e+00 -1.4882173559945373e-05 0.0000000000000000e+00  1.1536460198439145e+00 -1.5291374884397052e-02 0.0000000000000000e+00  1.1262267814175189e+00 9.3348852209389779e-06 0.0000000000000000e+00  1.1324765894930702e+00 -8.1157914378232997e-05 0.0000000000000000e+00  1.1328403742007445e+00 1.8567027942805592e-04 0.0000000000000000e+00  1.1371085419529581e+00 1.4158783460743049e-02 0.0000000000000000e+00  1.4486747062271106e+00 -1.1830294035851434e-01 0.0000000000000000e+00  1.1316043445643549e+00 -8.5915440700252651e-06 0.0000000000000000e+00  1.1314990677402914e+00 -2.2811337401387879e-04 0.0000000000000000e+00  1.1315775716841463e+00 -4.4798869217903595e-04 0.0000000000000000e+00  1.1317313747767030e+00 -1.9546005146378143e-04 0.0000000000000000e+00  1.1329555317007638e+00 2.1038523150671565e-04 0.0000000000000000e+00  1.1321386928483461e+00 1.0857107026406239e-04 0.0000000000000000e+00  1.1159159897295199e+00 7.4575430483060423e-05 0.0000000000000000e+00  1.1128282601550299e+00 -1.6551045881767034e-03 0.0000000000000000e+00  -7.4086397890847056e-01 -1.9320060881909493e-02 0.0000000000000000e+00  1.6853740041508716e+00 3.9517733774858933e-02 0.0000000000000000e+00  7.7952358221192031e-01 3.6818350043272427e-02 0.0000000000000000e+00  1.1333206755882677e+00 -1.8334918897355018e-05 0.0000000000000000e+00  1.1815510869064065e+00 2.5781747276050554e-01 0.0000000000000000e+00  1.1330053891147300e+00 1.3632972622342052e-05 0.0000000000000000e+00  1.1356653978200366e+00 -1.1017907870812317e-02 0.0000000000000000e+00  1.3870916555250818e+00 2.2913555319584256e-01 0.0000000000000000e+00  1.1333637604023119e+00 -1.0686265959065773e-04 0.0000000000000000e+00  2.3044836347620665e-06 6.7431122981821309e-07 0.0000000000000000e+00  1.8733261678248325e+00 -1.3507775162562971e-01 0.0000000000000000e+00  1.1438034293714427e+00 -2.5922624266513705e-01 0.0000000000000000e+00  1.2108253589052647e+00 -1.2009003351348142e-02 0.0000000000000000e+00  -1.3180228835705335e-06 4.9257874629711977e-09 0.0000000000000000e+00  1.1026113172977503e+00 1.5924655350909063e-04 0.0000000000000000e+00  -2.5738402227463337e-06 3.2503110005317324e-10 0.0000000000000000e+00  -7.4208451794651988e-06 4.3227173811166716e-07 0.0000000000000000e+00  1.1333721246798958e+00 6.6204093605518917e-05 0.0000000000000000e+00  3.0222470812219638e-06 -8.1135899710348857e-07 0.0000000000000000e+00  1.8249531563102415e+00 1.7633894813200338e-01 0.0000000000000000e+00  1.1153760704823621e+00 -1.6367827348445356e-05 0.0000000000000000e+00  1.7099430661213018e+00 -7.5754629843717794e-02 0.0000000000000000e+00  -3.8963605418305247e-06 -3.1420759554460913e-09 0.0000000000000000e+00  1.8216348638925548e+00 -1.7482118184106554e-01 0.0000000000000000e+00  -1.4442275399185908e-06 -3.4980099761827157e-09 0.0000000000000000e+00  1.1204448196791319e+00 8.7073137393197701e-05 0.0000000000000000e+00  1.5135506129776730e+00 3.8346229316031238e-02 0.0000000000000000e+00  -4.1625626844992788e-06 -3.3112861497579120e-07 0.0000000000000000e+00  1.6410198675634073e+00 7.3538898836789449e-02 0.0000000000000000e+00  1.3636562243631167e+00 -3.1203841437267699e-01 0.0000000000000000e+00  1.3395029202351794e+00 -1.2400938779445161e-01 0.0000000000000000e+00  1.3725890906944564e+00 1.2511491359526156e-01 0.0000000000000000e+00  1.8499626628053313e-06 8.0079203519179998e-08 0.0000000000000000e+00  1.1333209124337145e+00 -1.4915559350497086e-05 0.0000000000000000e+00  1.1147671246508934e+00 -2.9618452860766470e-04 0.0000000000000000e+00  1.6361696510018201e-06 -1.3677197832578109e-09 0.0000000000000000e+00  1.1332710411606641e+00 -1.2478080320404724e-05 0.0000000000000000e+00  1.1344464504197649e+00 -2.3053671256518696e-03 0.0000000000000000e+00  1.1100390309360455e+00 -6.5916747829424934e-03 0.0000000000000000e+00  1.1332472850602273e+00 -4.4458834952171327e-04 0.0000000000000000e+00  1.1152368106435673e+00 -2.7449420860668690e-04 0.0000000000000000e+00  1.9317531044990419e+00 2.2432196824993747e-01 0.0000000000000000e+00  1.1326462416860223e+00 -1.4237159565024876e-03 0.0000000000000000e+00  4.7126067466024150e-06 -1.5490796597629305e-08 0.0000000000000000e+00  -2.7940012462883210e-06 1.8075597024909259e-07 0.0000000000000000e+00  -6.8327055947089983e-07 -6.1021555948991867e-08 0.0000000000000000e+00  6.5625209419917119e-01 6.1953217564487286e-08 0.0000000000000000e+00  -1.8400373790496246e-06 2.3789229146849453e-10 0.0000000000000000e+00  1.1117522550000318e+00 2.7513888511285087e-04 0.0000000000000000e+00  1.3248780570469296e+00 1.6056165799743852e-01 0.0000000000000000e+00  1.1332677853026460e+00 -1.0608419473779445e-06 0.0000000000000000e+00  -4.6867004834587134e-07 1.6165624846478928e-08 0.0000000000000000e+00  -5.1825966191887290e-06 2.4180775851980435e-09 0.0000000000000000e+00  3.8010580927848852e-07 -1.6149499336669366e-08 0.0000000000000000e+00  -2.1091410779964103e-06 1.2399245691206168e-08 0.0000000000000000e+00  -1.4428909317496593e-06 8.5323359109100783e-09 0.0000000000000000e+00  -5.0657948784332871e-06 -7.8996199254307543e-08 0.0000000000000000e+00  -5.8507368039060749e-06 -6.9085121047800342e-07 0.0000000000000000e+00  -4.2760195660558011e-07 2.3407857937582023e-07 0.0000000000000000e+00  -1.0550470076550377e-06 3.3979976786517021e-07 0.0000000000000000e+00  -1.9330993761346829e-06 -1.0914637606319351e-07 0.0000000000000000e+00  1.7925584623163413e-07 -3.1212726499735647e-07 0.0000000000000000e+00  -9.7626185551318538e-07 1.6623686484255420e-07 0.0000000000000000e+00  1.1933649254823921e-06 2.6094007182518687e-08 0.0000000000000000e+00  -3.8376073400981011e-06 -5.7556736943768139e-08 0.0000000000000000e+00  -3.0854882478770397e-06 -1.1597991803959162e-06 0.0000000000000000e+00  -3.1791649921239405e-06 -6.7113318696236668e-09 0.0000000000000000e+00  -1.3712628027224050e-06 -9.9693613620354448e-09 0.0000000000000000e+00  -5.3267212525915489e-06 1.8187240644869886e-08 0.0000000000000000e+00  8.1426327999581793e-01 -6.8943267093870150e-02 0.0000000000000000e+00  1.0804639869246375e+00 -4.3529086879469865e-07 0.0000000000000000e+00  1.0801636909992793e+00 2.3806354743239598e-03 0.0000000000000000e+00  1.0980636306406650e+00 9.7285879503371757e-05 0.0000000000000000e+00  1.6161407233206917e+00 -9.1537963427005223e-02 0.0000000000000000e+00  1.4196535230547062e-02 5.4901778879673818e-02 0.0000000000000000e+00  -4.1534552141244602e-02 -4.4047953018334987e-02 0.0000000000000000e+00  1.1320931535988663e+00 4.1957268649026275e-04 0.0000000000000000e+00  1.1100774892059742e+00 -2.2491294640361034e-04 0.0000000000000000e+00  1.1333338797517680e+00 2.9157185377893495e-05 0.0000000000000000e+00  1.1335508419540583e+00 -3.5256239026122118e-04 0.0000000000000000e+00  1.0676496272698393e+00 -1.4123051716986130e-04 0.0000000000000000e+00  1.1332297143132160e+00 -6.9404991413370522e-05 0.0000000000000000e+00  1.1332606274659016e+00 -5.9203694219961352e-05 0.0000000000000000e+00  1.1332901961581565e+00 -4.8811308252971736e-05 0.0000000000000000e+00  1.1333237708603479e+00 -3.4647561203526368e-05 0.0000000000000000e+00  1.0792232916068263e+00 -4.8973329192158132e-05 0.0000000000000000e+00  1.0979056673954679e+00 -3.4221784948774465e-04 0.0000000000000000e+00  1.0454994579656758e+00 3.3272998004467154e-02 0.0000000000000000e+00  1.0681871940682912e+00 3.3264781647702893e-04 0.0000000000000000e+00  2.9265536931678271e-01 1.4547679951654710e-01 0.0000000000000000e+00  1.2741314301603262e+00 -7.2290795984758516e-02 0.0000000000000000e+00  1.1006766928478349e+00 -6.5115326770173246e-02 0.0000000000000000e+00  1.1179743741154349e+00 -2.0823236429871853e-01 0.0000000000000000e+00  1.5455604493857200e+00 -2.3185013413567870e-01 0.0000000000000000e+00  1.1307629341013197e+00 -5.9532355335733269e-05 0.0000000000000000e+00  1.5855519660858646e+00 -4.6846557796000506e-02 0.0000000000000000e+00  1.5265362047445710e+00 4.2349372781603889e-02 0.0000000000000000e+00  1.1332980358988736e+00 1.2733923354571115e-05 0.0000000000000000e+00  1.3800812877560327e+00 -3.8142620231933398e-02 0.0000000000000000e+00  1.4028904492926888e+00 -2.0836446662965521e-02 0.0000000000000000e+00  1.1333526687339444e+00 -2.3223804299248634e-04 0.0000000000000000e+00  1.8440420016379580e-01 -1.9832828207316405e-01 0.0000000000000000e+00  4.0179148333855841e-01 1.2797190283268997e-01 0.0000000000000000e+00  1.1333539961123558e+00 -1.0814209030875251e-05 0.0000000000000000e+00  1.1018330312566651e+00 1.5615194932127940e-04 0.0000000000000000e+00  1.1333598462828156e+00 4.9380229396926908e-05 0.0000000000000000e+00  1.1346020906691838e+00 -7.2091312142278882e-04 0.0000000000000000e+00  9.7801140870049008e-01 -4.2336622656229929e-02 0.0000000000000000e+00  1.0896920885879626e+00 -1.2514235229188375e-04 0.0000000000000000e+00  1.1332063826547130e+00 -2.5503548422307736e-05 0.0000000000000000e+00  1.1070914389910229e+00 5.7653906198727019e-02 0.0000000000000000e+00  1.0829454556158808e+00 1.4664780004490207e-04 0.0000000000000000e+00  6.5624915485970359e-01 1.7751362841268148e-07 0.0000000000000000e+00  1.1685838623743250e+00 3.8260278304172196e-02 0.0000000000000000e+00  1.6146319873750827e+00 7.4592835939343752e-02 0.0000000000000000e+00  1.1650932736999671e+00 -1.2439305391877323e-02 0.0000000000000000e+00  1.0074181026634728e+00 2.3882617797821470e-01 0.0000000000000000e+00  1.2406399634797576e+00 7.0344424765767119e-02 0.0000000000000000e+00  1.0447486594521584e+00 6.7484437072024321e-04 0.0000000000000000e+00  8.5078532888005964e-01 5.5715390025354444e-02 0.0000000000000000e+00  1.1334127846536992e+00 -3.6483921243572830e-05 0.0000000000000000e+00  1.6064697298308848e+00 1.5844203939786478e-01 0.0000000000000000e+00  1.1334050684252439e+00 -2.9334036321183207e-05 0.0000000000000000e+00  1.1333728192519112e+00 -1.2090050703823721e-04 0.0000000000000000e+00  1.6637342776936970e+00 -2.3838335854603581e-02 0.0000000000000000e+00  1.6405133795256002e+00 -8.4986576952870749e-02 0.0000000000000000e+00  1.1332788686576127e+00 -1.1367894838077153e-05 0.0000000000000000e+00  1.1331190451071746e+00 -1.5028336272884153e-05 0.0000000000000000e+00  1.1332855484691635e+00 -8.0608230122728027e-05 0.0000000000000000e+00  1.0580837592951127e+00 4.0855042323110016e-04 0.0000000000000000e+00  1.1958486306253633e+00 1.0880775398231275e-02 0.0000000000000000e+00  9.4162705777462530e-01 9.4579200772385560e-02 0.0000000000000000e+00  1.1333053365604406e+00 4.8713442262566758e-05 0.0000000000000000e+00  1.2221102889030120e+00 1.5960979606095463e-01 0.0000000000000000e+00  1.0831805189053760e+00 1.4942850569568173e-05 0.0000000000000000e+00  1.1229773225817159e+00 -7.4910159826777425e-04 0.0000000000000000e+00  1.3823822986253564e+00 1.1042979327097470e-01 0.0000000000000000e+00  1.1323078946416083e+00 -2.8193522565532416e-03 0.0000000000000000e+00  1.1331186456716078e+00 -1.4230400825203691e-04 0.0000000000000000e+00  1.1332627024417976e+00 1.5238402383035079e-04 0.0000000000000000e+00  1.1333850469695921e+00 5.6061041775740051e-05 0.0000000000000000e+00  1.1328424475746024e+00 -2.7783802343888585e-04 0.0000000000000000e+00  9.8241797953840870e-01 -5.9043151665824915e-05 0.0000000000000000e+00  9.8179779970242964e-01 -2.0027261279751893e-04 0.0000000000000000e+00  9.8332579836058265e-01 -3.3509959354051745e-02 0.0000000000000000e+00  1.0456620947568422e+00 -1.5640999319905709e-02 0.0000000000000000e+00  1.1329462504032908e+00 -2.5725731163841798e-05 0.0000000000000000e+00  1.0154515532406114e+00 1.8365307137882935e-05 0.0000000000000000e+00  1.1332476726673464e+00 -1.0389110961344554e-05 0.0000000000000000e+00  1.1333098814015099e+00 -2.8600904475382154e-06 0.0000000000000000e+00  1.1344757147597708e+00 -4.5546530178230335e-03 0.0000000000000000e+00  1.0152010308839710e+00 6.5822248083734811e-02 0.0000000000000000e+00  1.1333104543756716e+00 -3.2101670062753028e-05 0.0000000000000000e+00  1.1330895527039408e+00 -8.3290407686226016e-05 0.0000000000000000e+00  9.2350781107785240e-01 6.1880042851659538e-03 0.0000000000000000e+00  1.1370068980083079e+00 4.6268832003231071e-03 0.0000000000000000e+00  1.0068679792419433e+00 2.8419985521968980e-02 0.0000000000000000e+00  1.0493051047950341e+00 2.2777283240899075e-04 0.0000000000000000e+00  7.3913395486565037e-01 -8.0029926066021939e-02 0.0000000000000000e+00  1.2115250068099812e+00 -1.2080045745413400e-02 0.0000000000000000e+00  9.7513800962701835e-01 -7.5017445121577576e-06 0.0000000000000000e+00  1.1367735541928490e+00 -8.0337451764472267e-03 0.0000000000000000e+00  1.5249684835266879e+00 4.8199740238698946e-01 0.0000000000000000e+00  1.0074407811984256e+00 1.8637631844273322e-01 0.0000000000000000e+00  1.0282715516842282e+00 4.3091855623422320e-04 0.0000000000000000e+00  1.3351906247564695e+00 -1.3816783661565826e-01 0.0000000000000000e+00  1.4479947845815260e+00 -5.5217552735262265e-01 0.0000000000000000e+00  1.0105900980661493e+00 8.3173102347099354e-05 0.0000000000000000e+00  1.0439863423411648e+00 2.4893074989180857e-05 0.0000000000000000e+00  1.1347182996352805e+00 4.1430558561433210e-04 0.0000000000000000e+00  2.8326527641017463e-01 1.2958502868527635e-01 0.0000000000000000e+00  1.4062543653932980e+00 6.0309773892308448e-07 0.0000000000000000e+00  1.1332774487345860e+00 -9.3989334859869756e-06 0.0000000000000000e+00  1.0290852316983052e+00 -7.1021149712290879e-04 0.0000000000000000e+00  1.4062507970301952e+00 5.9702900086747240e-07 0.0000000000000000e+00  1.0286936411735004e+00 2.9079269080182405e-05 0.0000000000000000e+00  1.8377600492895423e+00 -3.5265835833276432e-01 0.0000000000000000e+00  1.1333751339119014e+00 2.3672662338370303e-05 0.0000000000000000e+00  7.1553923923131479e-01 1.0000760479363664e-01 0.0000000000000000e+00  1.1332298751626806e+00 -2.0293532320985987e-05 0.0000000000000000e+00  1.0115612652963626e+00 -3.2239057351291889e-04 0.0000000000000000e+00  8.8428032628409281e-01 1.2397234509418692e-04 0.0000000000000000e+00  1.1325854978390546e+00 -6.9868023682063190e-05 0.0000000000000000e+00  8.8273622795578344e-01 -1.0391107615150097e-03 0.0000000000000000e+00  9.8028490752308695e-01 -2.6590287079921967e-04 0.0000000000000000e+00  1.301068284307