<?xml version="1.0"?>
<VTKFile type="UnstructuredGrid"  version="0.1"  >
<UnstructuredGrid>
<Piece  NumberOfPoints="2426" NumberOfCells="4534">
<Points>
<DataArray  type="Float64"  NumberOfComponents="3"  format="ascii">0 0.41 0  0 0 0  2.2 0 0  2.2 0.41 0  0.2404508497187474 0.2293892626146237 0  0.25 0.2 0  0.2404508497187474 0.1706107373853764 0  0.2154508497187474 0.1524471741852423 0  0.1845491502812526 0.1524471741852423 0  0.1595491502812526 0.1706107373853764 0  0.15 0.2 0  0.1595491502812526 0.2293892626146237 0  0.1845491502812527 0.2475528258147577 0  0.2154508497187474 0.2475528258147577 0  0.5404508497187474 0.2293892626146237 0  0.55 0.2 0  0.5404508497187474 0.1706107373853764 0  0.5154508497187473 0.1524471741852423 0  0.4845491502812526 0.1524471741852423 0  0.4595491502812526 0.1706107373853764 0  0.45 0.2 0  0.4595491502812526 0.2293892626146237 0  0.4845491502812526 0.2475528258147577 0  0.5154508497187473 0.2475528258147577 0  1.1 0 0  0 0.205 0  1.1 0.41 0  0.55 0 0  0.55 0.41 0  0.275 0 0  0.275 0.41 0  1.65 0.41 0  1.65 0 0  1.375 0 0  1.375 0.41 0  1.925 0 0  1.925 0.41 0  0.8250000000000001 0.41 0  0.8250000000000001 0 0  1.5125 0.205 0  1.7875 0.205 0  0.9625000000000001 0.205 0  1.2375 0.205 0  2.2 0.205 0  0.7560964076246335 0.2151713709677419 0  1.99375 0.2152743902439024 0  2.0625 0 0  0.6875 0 0  2.0625 0.41 0  2.2 0.3075 0  0.6875 0.41 0  1.7875 0.41 0  1.375 0.1486128048780488 0  1.5125 0 0  1.7875 0 0  1.5125 0.41 0  0.9625000000000001 0 0  0.9625000000000001 0.41 0  0.4125 0 0  0.1375 0 0  0.1375 0.41 0  0.4125 0.41 0  1.2375 0 0  1.1 0.1486128048780487 0  1.2375 0.41 0  1.65 0.1486128048780487 0  1.126715909090909 0.2793064024390244 0  1.676715909090909 0.2793064024390244 0  1.348284090909091 0.2793064024390244 0  0.34375 0.3032389320646208 0  1.894702181800738 0.1282910975492754 0  2.092797818199262 0.1282910975492754 0  1.85625 0.3075 0  0.8630851210521902 0.286932093388664 0  0.89375 0.1025 0  0.35 0.1090282786671641 0  0 0.3075 0  0 0.1025 0  0.6526217841291382 0.288229645480046 0  0.7562500000000001 0.09660248895515888 0  0.6568633732316684 0.1557582854763441 0  2.099172119769978 0.25625 0  1.002356446954348 0.1010393851523063 0  1.99375 0.08395950269330846 0  1.459960956013612 0.3075 0  1.569025960719943 0.2986889805672169 0  1.03125 0.3278689922742084 0  0.75625 0.3247156761655783 0  1.959375 0.3126371951219512 0  1.749222215368287 0.1025 0  1.275777784631713 0.1025 0  2.2 0.1025 0  1.225938124459196 0.3075 0  1.550777784631713 0.1025 0  1.44375 0.07430640243902442 0  1.16875 0.07430640243902437 0  0.3528655045338512 0.2063263890916129 0  0.5890337614812103 0.08775733857679162 0  0.8504912436891263 0.190072835691683 0  1.899250267340833 0.2229966846119207 0  0.1020898364287272 0.3140258291809757 0  1.766482954545455 0.2934032012195123 0  1.051658316544432 0.2265720188842194 0  0.2 0.3400647632937836 0  1.421109702350723 0.2261157654379721 0  0.4812500000000001 0.41 0  0.4324401666997539 0.3216425986889796 0  0.098916018031319 0.09171660955420841 0  0.9508742791313441 0.2921736960864468 0  2.13125 0 0  2.118919042110979 0.3422084711244843 0  1.30625 0.41 0  0.20625 0 0  1.597888256393107 0.2173787389261347 0  0.4812500000000001 0 0  0.4324082967851086 0.08384041677422771 0  1.829299675393195 0.07400700849299596 0  0.568219932524165 0.3212274660843853 0  1.71875 0.41 0  0.268005226542646 0.08512186835670006 0  1.16875 0.41 0  2.038220665644273 0.332420740103091 0  0.6678017527842831 0.07701763866051195 0  0.89375 0.41 0  0.5111435174287687 0.07335351331957608 0  0.176193934632343 0.0734896648625108 0  0.07390688010811153 0.1697064032433452 0  0.05452951551825875 0.25625 0  0.61875 0.41 0  1.452769549894695 0.1548122580621249 0  1.369219062229598 0.07430640243902442 0  1.30625 0 0  1.720943423819132 0.1714577452753128 0  1.157188124459196 0.205 0  1.094219062229598 0.07430640243902437 0  1.304056576180868 0.1714577452753128 0  1.67579304192913 0.07430640243902437 0  0.2672907219039591 0.3037570723459566 0  1.209670467133757 0.1362100266964769 0  1.58125 0 0  1.03125 0 0  0.06875000000000001 0.41 0  0 0.35875 0  1.58125 0.41 0  1.631724228912893 0.3381867502687533 0  0.8240147050827157 0.1225233169495944 0  1.825608881788174 0.14499488549201 0  1.85625 0 0  1.44375 0 0  1.44375 0.41 0  1.85625 0.41 0  2.13125 0.41 0  0.7562500000000001 0.41 0  0.7562500000000001 0 0  0.89375 0 0  0.34375 0 0  0.34375 0.41 0  0.20625 0.41 0  0.06875000000000001 0 0  1.16875 0 0  1.03125 0.41 0  0.61875 0 0  1.71875 0 0  1.99375 0 0  1.99375 0.41 0  0.3972301426712326 0.2593842555611471 0  1.340625 0.3489494290853124 0  1.134375 0.3489494290853123 0  1.700180620188976 0.3438659752031281 0  0.5003922072260507 0.341765274319271 0  0.6212513815748759 0.2209216137134851 0  0.6885607720119526 0.215393731583638 0  1.033412357328477 0.1612902025713047 0  2.135782184673599 0.07126652247502523 0  1.668441847249787 0.2129203728327609 0  1.295782514339747 0.2378437748815763 0  1.409375 0.3520314716057996 0  2.129248544730567 0.1906135162504124 0  2.060771381434487 0.1989445750470348 0  2.013252586573865 0.1496169464686054 0  1.942766402200229 0.1734448904596831 0  1.895522487186454 0.06076163953489683 0  2.069553871656643 0.06605731020975725 0  0.9281250000000001 0.3539050257418612 0  1.274680914880868 0.3520219391081363 0  0.3030138498135347 0.2488370856812789 0  0.8223773249563684 0.341761430177996 0  0.9018164060227267 0.2326477848736739 0  0.8143027982392851 0.2440265179987191 0  0.7225087161029304 0.2699907246386231 0  1.614713220494657 0.09473434380863296 0  0.378125 0.3566194660323104 0  0.309375 0.3566194660323104 0  1.72990325744076 0.2380068107952482 0  0.6915936999299305 0.3429472631234433 0  0.6268087624932918 0.3466455500035671 0  1.356580098625191 0.2120393231351682 0  0.3060160055995138 0.1590148921620778 0  0.3954648733249218 0.156380553890791 0  2.034370752044885 0.2668681600792073 0  1.51768709249349 0.3426260931494756 0  1.561883724969884 0.1650446847858835 0  1.197344062229598 0.2523725417393646 0  0.9281250000000001 0.05124999999999999 0  1.804085235518364 0.3468178408964637 0  1.817887819205233 0.2589243285818559 0  0.9107805776841645 0.1653834539923287 0  1.905897727272727 0.3485060975609756 0  0 0.05125 0  0.844212276491354 0.0614201194265309 0  0.378125 0.05244637078450034 0  1.008571329007178 0.2705955969954818 0  0.7724048032149464 0.1559079561351474 0  0.7203054377831548 0.04941826955193545 0  1.192836486056382 0.3562350748565544 0  0.5967108020713719 0.1479294686523888 0  1.28257088594801 0.2944411014911587 0  0.7041890234548132 0.1222025174424443 0  1.474860187679412 0.2504218616229368 0  1.406767003493824 0.2829282258560709 0  0.3201325899091991 0.05890121548989159 0  0.5979220912872258 0.2727591995766724 0  1.845656689180403 0.1998310418452388 0  2.144958525570388 0.2909790873294231 0  2.2 0.15375 0  1.57794966442982 0.3540357145964566 0  0.9483181579620558 0.1214693369582054 0  0.0496154796471391 0.333125 0  1.508991196088596 0.1421783375065625 0  0.09776612425612034 0.2204896805326566 0  1.50436820029908 0.06143401634903343 0  1.223857000523521 0.0823554862453532 0  0.2531953886959507 0.3582003209055908 0  1.153316824384777 0.1289850171317837 0  2.148922302309752 0.1258841779285271 0  1.621993280276081 0.2841214267927899 0  1.550118654119087 0.2461998729100966 0  1.327182649291491 0.1216967252533594 0  1.753125 0.04556020050186112 0  1.271875 0.04556020050186116 0  0.9824282234771738 0.05051969257615314 0  1.039510847866381 0.05683351822678641 0  1.94956388244759 0.1180512551534177 0  1.949997712993411 0.04965831614304109 0  1.771961817615021 0.1530278789497521 0  1.909246823951428 0.2812757146784527 0  1.101974016627944 0.2038045618205013 0  0.7906250000000001 0.0444674049654372 0  1.948575539857022 0.2445328248721197 0  1.697271520964565 0.1233917627620729 0  1.065625 0.3689344961371042 0  1.085849084308977 0.3170853572226867 0  0.9840604787624379 0.3582077516409966 0  1.577403511714593 0.05463601888079143 0  0.05622663515370135 0.05493816910862376 0  0.8762396958822678 0.3392249777398821 0  1.751571320346033 0.3651102912045228 0  1.055327852410105 0.111864799513911 0  0.1583785085108421 0.2994699345738728 0  0.1455283439499995 0.3542795598723423 0  2.2 0.35875 0  0.225705107073232 0.05084786997482401 0  0.1455852234589313 0.1166494778469164 0  1.466879772203159 0.3611261772912453 0  1.990280163552011 0.3564754268533217 0  1.17471064520912 0.2990917256188288 0  0.7221925551074015 0.1739659241003985 0  0 0.25625 0  2.2 0.25625 0  2.2 0.05125 0  0 0.15375 0  1.853978576207987 0.35875 0  0.21965520498276 0.1015543880164422 0  1.515638456102889 0.2882700110184686 0  0.09048297387599738 0.3637717362208066 0  2.150453692751374 0.2387066338105111 0  1.323782677156475 0.04897634338873398 0  1.409375 0.03715320121951221 0  1.406484531114799 0.1087852750766809 0  1.134375 0.03715320121951218 0  1.627401732573545 0.04552157221025036 0  0.446875 0.3713289093361426 0  2.045405893604797 0.1105340662939892 0  1.255408269734577 0.1577307500159216 0  2.028125 0.03707597992059326 0  0.04420832937638274 0.128125 0  0.5817551710628505 0.3702615006034757 0  0.1197849154434487 0.2663398672460083 0  1.248258025468107 0.2565907092181813 0  0.1300647302703173 0.0508462728378621 0  0.7738123537510222 0.2761231499240648 0  1.203125 0.0366132337404304 0  0.5444207041612499 0.111205399508622 0  0.8016457771828226 0.1964238426015905 0  2.072662025974815 0.2975086504196739 0  0.4019040438866802 0.2103993403217561 0  0.4677372330974851 0.04827477407630658 0  0.8677218578847617 0.1432970430140788 0  1.058011122005847 0.2758866204059919 0  0.4429405887974043 0.2746184809910084 0  0.5843750000000001 0.03726989681835222 0  0.6318596133730142 0.1128692182767254 0  0.4862628454464408 0.2957029785303028 0  0.7805186758662764 0.3673578380827891 0  1.887722846421017 0.1760882698830035 0  0.3498893058880703 0.256189258793856 0  1.472640588990488 0.1118278026240017 0  1.865937103925594 0.2604137786483804 0
[...]
<PointData  Vectors="f_37"> 
<DataArray  type="Float64"  Name="f_37"  NumberOfComponents="3" format="ascii">-5.9813953651081179e-07 2.0815394360006173e-08 0.0000000000000000e+00  3.5444715025274922e-07 -2.9430184615363241e-08 0.0000000000000000e+00  -3.6215960493763000e-07 -3.5902143809092533e-10 0.0000000000000000e+00  1.4434844912248521e-06 -3.1482111108250676e-09 0.0000000000000000e+00  -9.3132307497927547e-07 3.9024944470873352e-07 0.0000000000000000e+00  -8.9908971521622344e-07 7.1148465982511134e-07 0.0000000000000000e+00  -1.8827136519515071e-06 5.4344605838744913e-07 0.0000000000000000e+00  1.2591256456413989e-06 3.5496692621678286e-07 0.0000000000000000e+00  2.9382323947468227e-06 -5.6537455436798535e-07 0.0000000000000000e+00  -1.2145318685424051e-06 1.8395551651224768e-07 0.0000000000000000e+00  -1.6930958279383178e-06 1.3040078264022101e-06 0.0000000000000000e+00  1.4262864152360204e-06 2.1844590872045630e-06 0.0000000000000000e+00  -3.2099298895092073e-06 -1.7212868558902691e-06 0.0000000000000000e+00  -3.8110612442070359e-06 -1.1304049925683321e-06 0.0000000000000000e+00  -4.9234794054470251e-07 -2.7130651496173998e-06 0.0000000000000000e+00  -1.2241898113866659e-06 -6.1874134220967668e-06 0.0000000000000000e+00  -5.6005558561820470e-06 -2.0465585184211411e-06 0.0000000000000000e+00  -3.3789231146149198e-06 4.5765198129451538e-07 0.0000000000000000e+00  2.5931291806645721e-07 7.5839326802705968e-07 0.0000000000000000e+00  4.2831624587958119e-07 -4.1599942655056107e-06 0.0000000000000000e+00  -5.4230660761611294e-07 -4.7979055375038901e-06 0.0000000000000000e+00  -1.0592868176527127e-07 -3.1103764525926135e-06 0.0000000000000000e+00  -6.3496736595882938e-07 -3.0410028076888340e-07 0.0000000000000000e+00  3.0119842235949536e-07 -3.0180421036384304e-07 0.0000000000000000e+00  -2.4160531528482818e-06 -3.5624398855864733e-07 0.0000000000000000e+00  1.5000025677559701e+00 7.8104469784396505e-08 0.0000000000000000e+00  -3.2863154130807935e-06 -6.0366965951129025e-07 0.0000000000000000e+00  -1.8989917839063654e-06 7.9737674871246262e-08 0.0000000000000000e+00  -1.0815611467735980e-06 1.1982577184832011e-07 0.0000000000000000e+00  -2.6246183968674613e-06 7.5936600645654866e-08 0.0000000000000000e+00  -1.2418792971195524e-06 -1.8665101416412049e-08 0.0000000000000000e+00  5.9960878089291866e-07 1.5410895923931225e-08 0.0000000000000000e+00  2.4505928174639049e-07 -1.2932468039464062e-08 0.0000000000000000e+00  -2.8021399160061742e-07 2.7030664381343289e-07 0.0000000000000000e+00  7.3190815571729098e-07 -5.0667928732231519e-07 0.0000000000000000e+00  5.8910911645261929e-07 5.6055600714368143e-10 0.0000000000000000e+00  -7.7539409573155662e-07 -3.1937641447015209e-10 0.0000000000000000e+00  -1.5968073465272300e-06 -2.5138490814794498e-07 0.0000000000000000e+00  -8.6568262454135792e-07 -6.2919043969798288e-07 0.0000000000000000e+00  1.1329375361617537e+00 -5.9908841736806507e-03 0.0000000000000000e+00  1.2034298333467783e+00 -1.6960789914411991e-03 0.0000000000000000e+00  6.1306557029411424e-01 6.6122951304353585e-03 0.0000000000000000e+00  8.7139239882006725e-01 4.4917982752287096e-02 0.0000000000000000e+00  1.2035656085189541e+00 -2.1016923130731260e-05 0.0000000000000000e+00  2.4931530089852200e-01 -9.2038574174826915e-02 0.0000000000000000e+00  1.2037135666984260e+00 -9.3900754816880107e-05 0.0000000000000000e+00  -2.3222143224847989e-06 1.6164370165441943e-09 0.0000000000000000e+00  -4.0185885489160334e-06 3.3624095561011769e-08 0.0000000000000000e+00  -9.7751776850847857e-07 1.6798405236068542e-09 0.0000000000000000e+00  1.1781339347557813e+00 3.5240099793841716e-05 0.0000000000000000e+00  1.4899682660121676e-06 9.5815696669272573e-08 0.0000000000000000e+00  -7.1199804943285855e-07 -4.1528654332083603e-09 0.0000000000000000e+00  1.1874037020597488e+00 -8.9593479524640394e-03 0.0000000000000000e+00  2.7110183304030540e-06 2.1506324670832073e-08 0.0000000000000000e+00  -4.3540696257865707e-07 1.5746740331636119e-09 0.0000000000000000e+00  -2.5968379537204737e-07 6.6240887363112917e-08 0.0000000000000000e+00  5.3701433651145164e-07 2.0056382442420198e-07 0.0000000000000000e+00  2.0132450262899082e-06 3.1130929838830758e-07 0.0000000000000000e+00  2.8401843595848323e-07 -1.7601624121266332e-08 0.0000000000000000e+00  3.3156094998850697e-07 5.4085706404774246e-08 0.0000000000000000e+00  6.2385776521041830e-07 1.3283550905985270e-07 0.0000000000000000e+00  -3.4518784308900748e-06 8.6830684394589859e-08 0.0000000000000000e+00  3.6938351207325027e-06 -1.0424498009007089e-07 0.0000000000000000e+00  1.3716669834902886e+00 2.8201454918846031e-02 0.0000000000000000e+00  2.7432683498708472e-06 7.0909824734692258e-07 0.0000000000000000e+00  1.1958354336866701e+00 3.7177088364258792e-03 0.0000000000000000e+00  1.5379581191520182e+00 5.5085135735692707e-03 0.0000000000000000e+00  1.2068155236122711e+00 -7.5495952233487641e-03 0.0000000000000000e+00  1.3956013800714322e+00 -7.3497446678645051e-03 0.0000000000000000e+00  1.9615610855683450e+00 3.4216081600309138e-02 0.0000000000000000e+00  1.1984232999888811e+00 -2.5191990770162569e-04 0.0000000000000000e+00  1.1987207464730743e+00 -8.1330907424861511e-05 0.0000000000000000e+00  1.1786330413271733e+00 -1.6109474896499105e-04 0.0000000000000000e+00  1.6542812812481202e+00 -7.5877584208561000e-02 0.0000000000000000e+00  1.5549644672077694e+00 7.3050856554221819e-02 0.0000000000000000e+00  1.8671180539728622e+00 5.3175470202145624e-03 0.0000000000000000e+00  1.1249986069655800e+00 -1.6728828063344736e-07 0.0000000000000000e+00  1.1250028204607985e+00 4.0724322672223364e-08 0.0000000000000000e+00  1.7893268117983734e+00 -1.8699994045500040e-01 0.0000000000000000e+00  1.6634194173491772e+00 1.5037581018325052e-01 0.0000000000000000e+00  6.9750598376718509e-01 9.7791361513967598e-02 0.0000000000000000e+00  1.2030333105948385e+00 -6.7380353456382812e-06 0.0000000000000000e+00  1.4866661059318813e+00 -2.2304252194581056e-02 0.0000000000000000e+00  1.1342506509167918e+00 -1.0224996390955360e-05 0.0000000000000000e+00  1.2267473058670346e+00 2.0642891825606597e-02 0.0000000000000000e+00  1.2151396739808673e+00 -5.7718112932290799e-03 0.0000000000000000e+00  1.2710010960356457e+00 8.1746385348008925e-03 0.0000000000000000e+00  1.5309000653864597e+00 -1.2095605517658183e-01 0.0000000000000000e+00  1.1699651328130509e+00 6.0403841410795641e-06 0.0000000000000000e+00  1.1768398780704188e+00 -3.9119546761437040e-04 0.0000000000000000e+00  1.3101597913730836e+00 -2.7154321141376069e-02 0.0000000000000000e+00  1.1778560849312281e+00 -1.4029149465348391e-04 0.0000000000000000e+00  1.4146559339989484e+00 -2.0474876036345329e-02 0.0000000000000000e+00  1.1907914437901943e+00 3.9276134507575571e-03 0.0000000000000000e+00  1.1021818380629731e+00 -1.1664263357511745e-02 0.0000000000000000e+00  1.1173253911519621e+00 1.8821747702894886e-03 0.0000000000000000e+00  -3.6957532800448334e-01 -3.9881309475901100e-02 0.0000000000000000e+00  1.7705710754052417e+00 1.2012168677479668e-01 0.0000000000000000e+00  4.6390524207772454e-01 4.1202177857119222e-02 0.0000000000000000e+00  1.2037889140228830e+00 -3.4801505022231510e-04 0.0000000000000000e+00  1.1820399203288963e+00 2.5590246183820992e-01 0.0000000000000000e+00  1.1949832172246300e+00 -1.3964469098215859e-03 0.0000000000000000e+00  9.2508090987185965e-01 -4.6569319640380011e-02 0.0000000000000000e+00  1.3819475313641876e+00 2.1857854444226330e-01 0.0000000000000000e+00  1.1678044306328017e+00 -3.1479603789474252e-02 0.0000000000000000e+00  2.5915006369739844e-07 1.5354389899745331e-08 0.0000000000000000e+00  1.8497487287992940e+00 -5.6016971362978389e-02 0.0000000000000000e+00  1.1433866622381563e+00 -2.5632466238254037e-01 0.0000000000000000e+00  1.6237498784283695e+00 -4.1525549511551393e-02 0.0000000000000000e+00  -1.1162592502140986e-06 1.4381072556185528e-09 0.0000000000000000e+00  1.0556182839162691e+00 1.1446293025004592e-04 0.0000000000000000e+00  8.3380587942608659e-07 3.3224761204983351e-08 0.0000000000000000e+00  -6.7474558894176285e-06 2.5819851192360062e-07 0.0000000000000000e+00  1.1807620778982084e+00 -1.0441584138111406e-02 0.0000000000000000e+00  2.1783168045823829e-06 5.6357482344488651e-08 0.0000000000000000e+00  1.8284936722437013e+00 8.7194164679828115e-02 0.0000000000000000e+00  1.0912233074355220e+00 -1.5827749368394178e-04 0.0000000000000000e+00  1.8065906491578649e+00 -1.2416389232167648e-01 0.0000000000000000e+00  -2.8734970903902479e-06 4.4511386153249742e-09 0.0000000000000000e+00  1.7990606565534917e+00 -1.4457556622154047e-01 0.0000000000000000e+00  -2.8693053005304874e-06 9.6136489902444078e-08 0.0000000000000000e+00  1.1089608362788941e+00 7.0680987825823765e-05 0.0000000000000000e+00  1.6035260943713565e+00 1.2443486575460702e-01 0.0000000000000000e+00  -3.2741277806899313e-06 2.7759856308162663e-07 0.0000000000000000e+00  1.7162455074898637e+00 7.7073904640345733e-02 0.0000000000000000e+00  1.3595215848574782e+00 -3.0306908024462648e-01 0.0000000000000000e+00  1.3398766936731785e+00 -1.2245535355512653e-01 0.0000000000000000e+00  1.3730050043627888e+00 1.2500989969472656e-01 0.0000000000000000e+00  6.2264095158756450e-07 1.1994421440056208e-07 0.0000000000000000e+00  1.1738395890028059e+00 9.1782534806297816e-03 0.0000000000000000e+00  1.0949407614630002e+00 -3.7812693053766278e-02 0.0000000000000000e+00  2.4515040287569408e-07 2.5980771628677525e-07 0.0000000000000000e+00  1.2004796494186301e+00 -1.8234674891634728e-03 0.0000000000000000e+00  7.5165267542232994e-01 4.2445361504565869e-02 0.0000000000000000e+00  1.1554947561283964e+00 -5.3757372525759604e-03 0.0000000000000000e+00  1.0348320300718883e+00 1.5832092666137075e-02 0.0000000000000000e+00  1.0926122268792646e+00 8.3628043922785787e-04 0.0000000000000000e+00  1.9211767499590335e+00 1.8726802238247614e-01 0.0000000000000000e+00  1.4060019460998356e+00 4.5614191747246964e-02 0.0000000000000000e+00  3.9380710098951976e-06 -8.0206658184122816e-09 0.0000000000000000e+00  -3.2741688311068604e-06 2.9458625278281843e-07 0.0000000000000000e+00  -7.7041946079148552e-07 -5.8476362032862142e-08 0.0000000000000000e+00  6.5625205632726147e-01 1.2704426882676957e-08 0.0000000000000000e+00  -1.4238877665859646e-06 1.6082195058605876e-08 0.0000000000000000e+00  1.0864535931222312e+00 -2.7500871957554032e-03 0.0000000000000000e+00  1.6525431128517025e+00 1.5278357526044914e-01 0.0000000000000000e+00  1.2015607444522494e+00 -6.4444221324403122e-04 0.0000000000000000e+00  -4.4575554957385597e-07 -5.0532885914449366e-10 0.0000000000000000e+00  -6.1383621698650433e-06 4.9627276565441708e-08 0.0000000000000000e+00  -3.4418991325048188e-06 -1.9192252602466991e-07 0.0000000000000000e+00  -1.6954256675460999e-06 3.2285222637507567e-09 0.0000000000000000e+00  -1.0942853555645341e-06 4.4061093562086493e-10 0.0000000000000000e+00  8.8735662873144384e-07 3.6886834845676224e-08 0.0000000000000000e+00  -4.4065739467073941e-06 -2.7300904343537774e-07 0.0000000000000000e+00  3.9021138947506653e-06 -3.9483460135060828e-07 0.0000000000000000e+00  5.5809524311401106e-07 -6.3662323377243631e-08 0.0000000000000000e+00  -7.1608283917308686e-08 4.8026209713346088e-08 0.0000000000000000e+00  1.0086344775151853e-06 -9.1924693313392048e-08 0.0000000000000000e+00  -8.3119561707651509e-07 1.4214381249407438e-07 0.0000000000000000e+00  3.8533123110086096e-06 -4.5678940241253872e-07 0.0000000000000000e+00  1.5392811699752301e-08 -2.8054492602030547e-07 0.0000000000000000e+00  -3.8051777498015330e-06 -1.9256488533671038e-08 0.0000000000000000e+00  -2.9920249108509617e-06 5.4611917489702346e-09 0.0000000000000000e+00  -1.3698565440092497e-06 -1.5773148558674763e-09 0.0000000000000000e+00  -4.1249705888045855e-06 3.6998106526085108e-09 0.0000000000000000e+00  7.0612699122978129e-01 -3.9758914452414709e-02 0.0000000000000000e+00  9.3373105913407661e-01 3.7900095301498203e-02 0.0000000000000000e+00  9.5230732823851472e-01 1.2594630658134166e-02 0.0000000000000000e+00  1.0465910514222885e+00 -1.2049673498891013e-03 0.0000000000000000e+00  1.6706378286381174e+00 -7.2926577205800328e-02 0.0000000000000000e+00  2.6216902581292167e-02 1.0045439944464406e-02 0.0000000000000000e+00  7.7439944907189875e-02 -5.5308731509570712e-02 0.0000000000000000e+00  1.1421787325797284e+00 -1.7366202736961770e-02 0.0000000000000000e+00  1.0765264227394347e+00 -1.0992519611274594e-04 0.0000000000000000e+00  1.1970315333986445e+00 -8.8290416073052227e-03 0.0000000000000000e+00  1.2742460170940095e+00 -5.6703861857666286e-02 0.0000000000000000e+00  9.4727164407392939e-01 3.1037268387179795e-02 0.0000000000000000e+00  1.2036172096094957e+00 -5.9618771165739946e-05 0.0000000000000000e+00  1.2036554155015997e+00 -5.9070589994667720e-05 0.0000000000000000e+00  1.2026164937418780e+00 -6.8795185148713589e-05 0.0000000000000000e+00  1.2035106811213192e+00 -2.0267569208559598e-04 0.0000000000000000e+00  1.0038502461312964e+00 -7.9455703614082251e-06 0.0000000000000000e+00  1.0438864390339690e+00 -1.1887048078257541e-04 0.0000000000000000e+00  8.9272699866681693e-01 -1.3273750264341404e-02 0.0000000000000000e+00  8.8849816592109332e-01 2.0725391849994147e-02 0.0000000000000000e+00  2.4172591416121375e-01 5.4169763550871941e-02 0.0000000000000000e+00  1.2119505585210788e+00 -5.8543885222733918e-02 0.0000000000000000e+00  9.1933703802913991e-01 -3.0180094506631790e-02 0.0000000000000000e+00  1.0941634937024298e+00 -1.0524612944281755e-01 0.0000000000000000e+00  1.5808827946241080e+00 -1.9234149065415046e-01 0.0000000000000000e+00  1.1667155188088130e+00 3.3161486645380631e-03 0.0000000000000000e+00  1.5409852744064183e+00 -2.3280731427889501e-02 0.0000000000000000e+00  1.4879652042909195e+00 3.4218595600214174e-02 0.0000000000000000e+00  1.2041829444403898e+00 -4.4681925761966401e-03 0.0000000000000000e+00  1.4180600813742550e+00 -1.1652461744311629e-01 0.0000000000000000e+00  1.4853834074190788e+00 -1.1381953355464518e-01 0.0000000000000000e+00  1.0957056048985405e+00 -4.9568140997684744e-02 0.0000000000000000e+00  7.9524198120716968e-02 -6.5973837035177535e-02 0.0000000000000000e+00  3.1246463230299071e-01 3.1867557659973858e-02 0.0000000000000000e+00  1.2020166112173072e+00 2.2518089285982072e-06 0.0000000000000000e+00  1.0596330237792813e+00 3.5836411844913213e-03 0.0000000000000000e+00  1.1762812583102242e+00 1.2028070566562517e-02 0.0000000000000000e+00  1.3331953885184946e+00 -1.6412101842155930e-02 0.0000000000000000e+00  7.6913730955299597e-01 2.1775320798219301e-03 0.0000000000000000e+00  1.0237013953977343e+00 -1.1644696447843976e-04 0.0000000000000000e+00  1.2034518071243401e+00 -9.7100686556173357e-04 0.0000000000000000e+00  1.0820244599925724e+00 7.7403056328181993e-02 0.0000000000000000e+00  1.0102641057627804e+00 9.5630726186052796e-05 0.0000000000000000e+00  6.5624908492467093e-01 8.8341815456245723e-08 0.0000000000000000e+00  1.0525687041555087e+00 6.2019933863614547e-02 0.0000000000000000e+00  1.5739193898669865e+00 3.9328463480671455e-02 0.0000000000000000e+00  1.5644877647838979e+00 -3.4423344366413859e-02 0.0000000000000000e+00  1.0474100419469199e+00 1.1083648617666229e-01 0.0000000000000000e+00  1.0724147970769178e+00 7.4316801900434645e-02 0.0000000000000000e+00  8.3882156000784902e-01 6.6970658739936295e-03 0.0000000000000000e+00  7.9489646811768111e-01 1.0078279519403141e-01 0.0000000000000000e+00  1.4348003352029526e+00 -2.4994078707047302e-02 0.0000000000000000e+00  1.6381447000646674e+00 1.5524872676230858e-01 0.0000000000000000e+00  1.2223952329243200e+00 -1.6475723762237320e-02 0.0000000000000000e+00  1.3143186911500091e+00 2.4969871329165508e-02 0.0000000000000000e+00  1.6127795073149374e+00 -1.9117517560226019e-02 0.0000000000000000e+00  1.5101379630123073e+00 -1.4296644479111706e-01 0.0000000000000000e+00  1.2036150902062990e+00 -7.6029053824236610e-04 0.0000000000000000e+00  1.1944029053238947e+00 4.2962181398977978e-05 0.0000000000000000e+00  1.2029654786476827e+00 -1.0510817628367205e-04 0.0000000000000000e+00  9.6924482437545845e-01 -1.5433650191759775e-03 0.0000000000000000e+00  1.5824572323982902e+00 2.0994638503990540e-02 0.0000000000000000e+00  9.4155632369507836e-01 9.3799358964484339e-02 0.0000000000000000e+00  1.2079214824075404e+00 1.4141274167973557e-02 0.0000000000000000e+00  1.2233525547800670e+00 1.6112715208141673e-01 0.0000000000000000e+00  1.0100656337261464e+00 -2.4593842474818681e-03 0.0000000000000000e+00  1.1828199082514954e+00 -1.4233823737649514e-02 0.0000000000000000e+00  1.3630189939697732e+00 9.7946448893620364e-02 0.0000000000000000e+00  1.4892705984093628e+00 5.3955237391952134e-02 0.0000000000000000e+00  1.1977663418117888e+00 -1.1506721161666859e-04 0.0000000000000000e+00  1.2146519685080734e+00 -1.0273588534403997e-02 0.0000000000000000e+00  1.2050546333886527e+00 -1.5083131216197830e-02 0.0000000000000000e+00  1.3128915879212084e+00 -2.3873262424778541e-02 0.0000000000000000e+00  8.4952851801670648e-01 -1.6266702507361340e-04 0.0000000000000000e+00  7.3489281576288568e-01 -2.7499309070979389e-02 0.0000000000000000e+00  7.5655293727762807e-01 -1.9343737272832642e-02 0.0000000000000000e+00  8.8371146141780677e-01 -2.2767237273410689e-02 0.0000000000000000e+00  1.1936238273093931e+00 -1.3249091961682553e-04 0.0000000000000000e+00  8.9736844014399852e-01 -3.8935339355030876e-06 0.0000000000000000e+00  1.2016207787351600e+00 -1.0445565240731957e-03 0.0000000000000000e+00  1.1992332513178279e+00 -1.1522877092202546e-04 0.0000000000000000e+00  7.0389862773073497e-01 -2.0173660072568628e-02 0.0000000000000000e+00  7.9951339899704166e-01 4.9458913231061080e-02 0.0000000000000000e+00  1.2035370330677104e+00 -1.5145770587148761e-04 0.0000000000000000e+00  1.1945670003317101e+00 6.1596039989187540e-04 0.0000000000000000e+00  6.1036232456233630e-01 1.4365696170726991e-02 0.0000000000000000e+00  1.3809839151303636e+00 1.5760502560700093e-02 0.0000000000000000e+00  7.8885648369712269e-01 3.5736699384268929e-03 0.0000000000000000e+00  9.5195149907264964e-01 1.6339135043926738e-03 0.0000000000000000e+00  7.3877355185947391e-01 -7.9132469870216146e-02 0.0000000000000000e+00  1.1967048324624929e+00 -3.9752191998020450e-02 0.0000000000000000e+00  8.4145887176207723e-01 -1.9702770165295840e-04 0.0000000000000000e+00  1.5381096841682547e+00 -9.9563801088031808e-03 0.0000000000000000e+00  1.5286089753558492e+00 4.7681901111928998e-01 0.0000000000000000e+00  1.0051308627014695e+00 1.8260361398446689e-01 0.0000000000000000e+00  9.1513891110776524e-01 1.5750925332387353e-04 0.0000000000000000e+00  1.3199538545643594e+00 -1.2689884235424015e-01 0.0000000000000000e+00  1.4483637302415100e+00 -5.4625380185660621e-01 0.0000000000000000e+00  8.8425892787419280e-01 9.5431559523758459e-03 0.0000000000000000e+00  9.3874227178798930e-01 1.1879885488138069e-04 0.0000000000000000e+00  1.5010303707324817e+00 -9.7635248360503375e-03 0.0000000000000000e+00  3.4929346169161907e-01 3.4892765545136060e-02 0.0000000000000000e+00  1.4062541082578213e+00 1.6301888187147128e-07 0.0000000000000000e+00  1.2029577881983640e+00 -1.2136807366018410e-05 0.0000000000000000e+00  9.1536644958730584e-01 -2.6325861070431616e-04 0.0000000000000000e+00  1.4062506551740768e+00 8.9969808623260550e-08 0.0000000000000000e+00  9.1505076298336885e-01 2.5667013266439288e-05 0.0000000000000000e+00  1.8366348868030247e+00 -3.3187336491641539e-01 0.0000000000000000e+00  1.2402248407078849e+00 -4.5240994843320798e-03 0.0000000000000000e+00  7.1463577639929510e-01 9.8762848659229296e-02 0.0000000000000000e+00  1.2034761634100386e+00 -1.4204091671307797e-05 0.0000000000000000e+00  8.1558854500160971e-01 -3.3185760797372829e-02 0.0000000000000000e+00  7.1729553981801086e-01 -1.1395999664814782e-02 0.0000000000000000e+00  1.2555846063969549e+00 -1.8821943028739570e-02 0.0000000000000000e+00  5.6483189366063513e-01 -3.1739118205745200e-03 0.0000000000000000e+00  8.4991555958215959e-01 1.0191879619926129e-03 0.0000000000000000e+00  1.3206768416571235e+