<?xml version="1.0"?>
<VTKFile type="UnstructuredGrid"  version="0.1"  >
<UnstructuredGrid>
<Piece  NumberOfPoints="2426" NumberOfCells="4534">
<Points>
<DataArray  type="Float64"  NumberOfComponents="3"  format="ascii">0 0.41 0  0 0 0  2.2 0 0  2.2 0.41 0  0.2404508497187474 0.2293892626146237 0  0.25 0.2 0  0.2404508497187474 0.1706107373853764 0  0.2154508497187474 0.1524471741852423 0  0.1845491502812526 0.1524471741852423 0  0.1595491502812526 0.1706107373853764 0  0.15 0.2 0  0.1595491502812526 0.2293892626146237 0  0.1845491502812527 0.2475528258147577 0  0.2154508497187474 0.2475528258147577 0  0.5404508497187474 0.2293892626146237 0  0.55 0.2 0  0.5404508497187474 0.1706107373853764 0  0.5154508497187473 0.1524471741852423 0  0.4845491502812526 0.1524471741852423 0  0.4595491502812526 0.1706107373853764 0  0.45 0.2 0  0.4595491502812526 0.2293892626146237 0  0.4845491502812526 0.2475528258147577 0  0.5154508497187473 0.2475528258147577 0  1.1 0 0  0 0.205 0  1.1 0.41 0  0.55 0 0  0.55 0.41 0  0.275 0 0  0.275 0.41 0  1.65 0.41 0  1.65 0 0  1.375 0 0  1.375 0.41 0  1.925 0 0  1.925 0.41 0  0.8250000000000001 0.41 0  0.8250000000000001 0 0  1.5125 0.205 0  1.7875 0.205 0  0.9625000000000001 0.205 0  1.2375 0.205 0  2.2 0.205 0  0.7560964076246335 0.2151713709677419 0  1.99375 0.2152743902439024 0  2.0625 0 0  0.6875 0 0  2.0625 0.41 0  2.2 0.3075 0  0.6875 0.41 0  1.7875 0.41 0  1.375 0.1486128048780488 0  1.5125 0 0  1.7875 0 0  1.5125 0.41 0  0.9625000000000001 0 0  0.9625000000000001 0.41 0  0.4125 0 0  0.1375 0 0  0.1375 0.41 0  0.4125 0.41 0  1.2375 0 0  1.1 0.1486128048780487 0  1.2375 0.41 0  1.65 0.1486128048780487 0  1.126715909090909 0.2793064024390244 0  1.676715909090909 0.2793064024390244 0  1.348284090909091 0.2793064024390244 0  0.34375 0.3032389320646208 0  1.894702181800738 0.1282910975492754 0  2.092797818199262 0.1282910975492754 0  1.85625 0.3075 0  0.8630851210521902 0.286932093388664 0  0.89375 0.1025 0  0.35 0.1090282786671641 0  0 0.3075 0  0 0.1025 0  0.6526217841291382 0.288229645480046 0  0.7562500000000001 0.09660248895515888 0  0.6568633732316684 0.1557582854763441 0  2.099172119769978 0.25625 0  1.002356446954348 0.1010393851523063 0  1.99375 0.08395950269330846 0  1.459960956013612 0.3075 0  1.569025960719943 0.2986889805672169 0  1.03125 0.3278689922742084 0  0.75625 0.3247156761655783 0  1.959375 0.3126371951219512 0  1.749222215368287 0.1025 0  1.275777784631713 0.1025 0  2.2 0.1025 0  1.225938124459196 0.3075 0  1.550777784631713 0.1025 0  1.44375 0.07430640243902442 0  1.16875 0.07430640243902437 0  0.3528655045338512 0.2063263890916129 0  0.5890337614812103 0.08775733857679162 0  0.8504912436891263 0.190072835691683 0  1.899250267340833 0.2229966846119207 0  0.1020898364287272 0.3140258291809757 0  1.766482954545455 0.2934032012195123 0  1.051658316544432 0.2265720188842194 0  0.2 0.3400647632937836 0  1.421109702350723 0.2261157654379721 0  0.4812500000000001 0.41 0  0.4324401666997539 0.3216425986889796 0  0.098916018031319 0.09171660955420841 0  0.9508742791313441 0.2921736960864468 0  2.13125 0 0  2.118919042110979 0.3422084711244843 0  1.30625 0.41 0  0.20625 0 0  1.597888256393107 0.2173787389261347 0  0.4812500000000001 0 0  0.4324082967851086 0.08384041677422771 0  1.829299675393195 0.07400700849299596 0  0.568219932524165 0.3212274660843853 0  1.71875 0.41 0  0.268005226542646 0.08512186835670006 0  1.16875 0.41 0  2.038220665644273 0.332420740103091 0  0.6678017527842831 0.07701763866051195 0  0.89375 0.41 0  0.5111435174287687 0.07335351331957608 0  0.176193934632343 0.0734896648625108 0  0.07390688010811153 0.1697064032433452 0  0.05452951551825875 0.25625 0  0.61875 0.41 0  1.452769549894695 0.1548122580621249 0  1.369219062229598 0.07430640243902442 0  1.30625 0 0  1.720943423819132 0.1714577452753128 0  1.157188124459196 0.205 0  1.094219062229598 0.07430640243902437 0  1.304056576180868 0.1714577452753128 0  1.67579304192913 0.07430640243902437 0  0.2672907219039591 0.3037570723459566 0  1.209670467133757 0.1362100266964769 0  1.58125 0 0  1.03125 0 0  0.06875000000000001 0.41 0  0 0.35875 0  1.58125 0.41 0  1.631724228912893 0.3381867502687533 0  0.8240147050827157 0.1225233169495944 0  1.825608881788174 0.14499488549201 0  1.85625 0 0  1.44375 0 0  1.44375 0.41 0  1.85625 0.41 0  2.13125 0.41 0  0.7562500000000001 0.41 0  0.7562500000000001 0 0  0.89375 0 0  0.34375 0 0  0.34375 0.41 0  0.20625 0.41 0  0.06875000000000001 0 0  1.16875 0 0  1.03125 0.41 0  0.61875 0 0  1.71875 0 0  1.99375 0 0  1.99375 0.41 0  0.3972301426712326 0.2593842555611471 0  1.340625 0.3489494290853124 0  1.134375 0.3489494290853123 0  1.700180620188976 0.3438659752031281 0  0.5003922072260507 0.341765274319271 0  0.6212513815748759 0.2209216137134851 0  0.6885607720119526 0.215393731583638 0  1.033412357328477 0.1612902025713047 0  2.135782184673599 0.07126652247502523 0  1.668441847249787 0.2129203728327609 0  1.295782514339747 0.2378437748815763 0  1.409375 0.3520314716057996 0  2.129248544730567 0.1906135162504124 0  2.060771381434487 0.1989445750470348 0  2.013252586573865 0.1496169464686054 0  1.942766402200229 0.1734448904596831 0  1.895522487186454 0.06076163953489683 0  2.069553871656643 0.06605731020975725 0  0.9281250000000001 0.3539050257418612 0  1.274680914880868 0.3520219391081363 0  0.3030138498135347 0.2488370856812789 0  0.8223773249563684 0.341761430177996 0  0.9018164060227267 0.2326477848736739 0  0.8143027982392851 0.2440265179987191 0  0.7225087161029304 0.2699907246386231 0  1.614713220494657 0.09473434380863296 0  0.378125 0.3566194660323104 0  0.309375 0.3566194660323104 0  1.72990325744076 0.2380068107952482 0  0.6915936999299305 0.3429472631234433 0  0.6268087624932918 0.3466455500035671 0  1.356580098625191 0.2120393231351682 0  0.3060160055995138 0.1590148921620778 0  0.3954648733249218 0.156380553890791 0  2.034370752044885 0.2668681600792073 0  1.51768709249349 0.3426260931494756 0  1.561883724969884 0.1650446847858835 0  1.197344062229598 0.2523725417393646 0  0.9281250000000001 0.05124999999999999 0  1.804085235518364 0.3468178408964637 0  1.817887819205233 0.2589243285818559 0  0.9107805776841645 0.1653834539923287 0  1.905897727272727 0.3485060975609756 0  0 0.05125 0  0.844212276491354 0.0614201194265309 0  0.378125 0.05244637078450034 0  1.008571329007178 0.2705955969954818 0  0.7724048032149464 0.1559079561351474 0  0.7203054377831548 0.04941826955193545 0  1.192836486056382 0.3562350748565544 0  0.5967108020713719 0.1479294686523888 0  1.28257088594801 0.2944411014911587 0  0.7041890234548132 0.1222025174424443 0  1.474860187679412 0.2504218616229368 0  1.406767003493824 0.2829282258560709 0  0.3201325899091991 0.05890121548989159 0  0.5979220912872258 0.2727591995766724 0  1.845656689180403 0.1998310418452388 0  2.144958525570388 0.2909790873294231 0  2.2 0.15375 0  1.57794966442982 0.3540357145964566 0  0.9483181579620558 0.1214693369582054 0  0.0496154796471391 0.333125 0  1.508991196088596 0.1421783375065625 0  0.09776612425612034 0.2204896805326566 0  1.50436820029908 0.06143401634903343 0  1.223857000523521 0.0823554862453532 0  0.2531953886959507 0.3582003209055908 0  1.153316824384777 0.1289850171317837 0  2.148922302309752 0.1258841779285271 0  1.621993280276081 0.2841214267927899 0  1.550118654119087 0.2461998729100966 0  1.327182649291491 0.1216967252533594 0  1.753125 0.04556020050186112 0  1.271875 0.04556020050186116 0  0.9824282234771738 0.05051969257615314 0  1.039510847866381 0.05683351822678641 0  1.94956388244759 0.1180512551534177 0  1.949997712993411 0.04965831614304109 0  1.771961817615021 0.1530278789497521 0  1.909246823951428 0.2812757146784527 0  1.101974016627944 0.2038045618205013 0  0.7906250000000001 0.0444674049654372 0  1.948575539857022 0.2445328248721197 0  1.697271520964565 0.1233917627620729 0  1.065625 0.3689344961371042 0  1.085849084308977 0.3170853572226867 0  0.9840604787624379 0.3582077516409966 0  1.577403511714593 0.05463601888079143 0  0.05622663515370135 0.05493816910862376 0  0.8762396958822678 0.3392249777398821 0  1.751571320346033 0.3651102912045228 0  1.055327852410105 0.111864799513911 0  0.1583785085108421 0.2994699345738728 0  0.1455283439499995 0.3542795598723423 0  2.2 0.35875 0  0.225705107073232 0.05084786997482401 0  0.1455852234589313 0.1166494778469164 0  1.466879772203159 0.3611261772912453 0  1.990280163552011 0.3564754268533217 0  1.17471064520912 0.2990917256188288 0  0.7221925551074015 0.1739659241003985 0  0 0.25625 0  2.2 0.25625 0  2.2 0.05125 0  0 0.15375 0  1.853978576207987 0.35875 0  0.21965520498276 0.1015543880164422 0  1.515638456102889 0.2882700110184686 0  0.09048297387599738 0.3637717362208066 0  2.150453692751374 0.2387066338105111 0  1.323782677156475 0.04897634338873398 0  1.409375 0.03715320121951221 0  1.406484531114799 0.1087852750766809 0  1.134375 0.03715320121951218 0  1.627401732573545 0.04552157221025036 0  0.446875 0.3713289093361426 0  2.045405893604797 0.1105340662939892 0  1.255408269734577 0.1577307500159216 0  2.028125 0.03707597992059326 0  0.04420832937638274 0.128125 0  0.5817551710628505 0.3702615006034757 0  0.1197849154434487 0.2663398672460083 0  1.248258025468107 0.2565907092181813 0  0.1300647302703173 0.0508462728378621 0  0.7738123537510222 0.2761231499240648 0  1.203125 0.0366132337404304 0  0.5444207041612499 0.111205399508622 0  0.8016457771828226 0.1964238426015905 0  2.072662025974815 0.2975086504196739 0  0.4019040438866802 0.2103993403217561 0  0.4677372330974851 0.04827477407630658 0  0.8677218578847617 0.1432970430140788 0  1.058011122005847 0.2758866204059919 0  0.4429405887974043 0.2746184809910084 0  0.5843750000000001 0.03726989681835222 0  0.6318596133730142 0.1128692182767254 0  0.4862628454464408 0.2957029785303028 0  0.7805186758662764 0.3673578380827891 0  1.887722846421017 0.1760882698830035 0  0.3498893058880703 0.256189258793856 0  1.472640588990488 0.1118278026240017 0  1.865937103925594 0.2604137786483804 0
[...]
<PointData  Vectors="f_37"> 
<DataArray  type="Float64"  Name="f_37"  NumberOfComponents="3" format="ascii">-6.1239086769284528e-07 2.0283913295605367e-08 0.0000000000000000e+00  3.7339374190588199e-07 -3.0196637650681786e-08 0.0000000000000000e+00  -5.9855158946863804e-07 -4.5685958042523829e-09 0.0000000000000000e+00  1.2660600525880831e-06 1.4735244915682350e-08 0.0000000000000000e+00  -9.8648584951595362e-07 3.3645109888315036e-08 0.0000000000000000e+00  -7.7334716551554042e-07 -1.7062198952112150e-08 0.0000000000000000e+00  -1.6566872634710467e-06 2.3136965039510428e-07 0.0000000000000000e+00  1.1746283780553654e-06 2.8581307094641893e-07 0.0000000000000000e+00  2.9439971570657762e-06 -4.3567520630979888e-07 0.0000000000000000e+00  -9.2031284888568425e-07 4.0198607643177295e-08 0.0000000000000000e+00  -1.7334079654043483e-06 1.0482092380616566e-06 0.0000000000000000e+00  6.0805108360388436e-07 2.2082530494466345e-06 0.0000000000000000e+00  -3.8206470021895807e-06 -1.2771255190102634e-06 0.0000000000000000e+00  -3.5425172217383295e-06 -8.3075449549991752e-07 0.0000000000000000e+00  -2.1109385434584339e-06 -2.3881983549327620e-07 0.0000000000000000e+00  -1.4437957087538980e-06 -3.4352986998107550e-07 0.0000000000000000e+00  -3.7719179727899233e-06 -4.5547198987659763e-07 0.0000000000000000e+00  -3.0265932575879569e-06 -1.0446037685929879e-07 0.0000000000000000e+00  -1.8594003444207449e-06 6.6737117124951334e-08 0.0000000000000000e+00  -9.2896384807715291e-07 -3.2395519365253987e-07 0.0000000000000000e+00  -1.1164282503462863e-06 9.1010202741751845e-09 0.0000000000000000e+00  -1.7464822980290842e-06 6.8633415342520483e-09 0.0000000000000000e+00  -7.0829113875192163e-07 1.7816118090161813e-07 0.0000000000000000e+00  -3.7658829485404216e-07 1.7625202490428649e-07 0.0000000000000000e+00  -1.2640497701779040e-06 -2.8925486868211135e-07 0.0000000000000000e+00  1.5000025227646649e+00 -4.8325625964432265e-09 0.0000000000000000e+00  -1.9331951420513759e-07 -1.6392287633779598e-07 0.0000000000000000e+00  -2.2809871948374816e-06 -6.5405574030416463e-08 0.0000000000000000e+00  -9.3129491524608865e-07 6.5051654203870330e-08 0.0000000000000000e+00  -2.6371057068361027e-06 9.0990201249664851e-08 0.0000000000000000e+00  -1.0717301690329639e-06 -2.6513077420339235e-08 0.0000000000000000e+00  -1.2881245941177313e-06 -7.3070604004078794e-09 0.0000000000000000e+00  8.7336919337794560e-07 6.2752430395068478e-08 0.0000000000000000e+00  -1.0226252825330041e-07 1.9975736622350974e-07 0.0000000000000000e+00  3.4319657718704551e-06 3.8638404681337356e-07 0.0000000000000000e+00  2.1293110828639019e-07 1.5583843022627739e-08 0.0000000000000000e+00  -7.8078359586848924e-07 -1.2559807211311816e-07 0.0000000000000000e+00  -1.1790395812011106e-06 -6.4246842948489113e-08 0.0000000000000000e+00  -1.5572508871573276e-06 -2.0250279060039488e-07 0.0000000000000000e+00  1.0676174077344418e+00 -5.8648876283533838e-02 0.0000000000000000e+00  1.1249821110319822e+00 5.0286886882509416e-02 0.0000000000000000e+00  6.2199936998930205e-01 2.0625213726652696e-03 0.0000000000000000e+00  9.0192048435846073e-01 2.2601767478859069e-02 0.0000000000000000e+00  1.2145798363500244e+00 3.2014071582982639e-02 0.0000000000000000e+00  2.1419817382441306e-01 -5.0587154400104126e-02 0.0000000000000000e+00  1.1929946032196017e+00 -3.8401052181300133e-02 0.0000000000000000e+00  -1.4275985694971549e-06 1.9385719265115448e-09 0.0000000000000000e+00  -1.7580514964463275e-06 -5.0787521620826605e-08 0.0000000000000000e+00  -1.0378665350969913e-06 2.1836736765651267e-08 0.0000000000000000e+00  1.2766946728211048e+00 -5.8870414665253886e-03 0.0000000000000000e+00  -1.5248250127940035e-07 4.1354495016939107e-08 0.0000000000000000e+00  3.5327067202949283e-07 2.2260329074628814e-07 0.0000000000000000e+00  1.2937743705738323e+00 1.3803315995181462e-02 0.0000000000000000e+00  1.9703242610743435e-06 -1.1368128691763619e-07 0.0000000000000000e+00  -9.9058766443275551e-07 -4.3093341490432163e-08 0.0000000000000000e+00  5.0700599212929207e-08 -3.1999528581011661e-07 0.0000000000000000e+00  -1.9948931015168540e-06 1.9355683423244670e-07 0.0000000000000000e+00  5.0749858883510521e-07 1.2195789505696297e-07 0.0000000000000000e+00  -7.4881498834893446e-07 -2.1609814313502517e-08 0.0000000000000000e+00  3.1568276131761601e-07 6.4003763703124520e-08 0.0000000000000000e+00  5.9078388670805148e-07 1.3347946531745770e-07 0.0000000000000000e+00  -2.7190064281963767e-06 1.1247340680681632e-07 0.0000000000000000e+00  2.5418386200820943e-06 -2.5080520448288631e-08 0.0000000000000000e+00  1.3881661789688380e+00 1.6751017427171829e-02 0.0000000000000000e+00  -2.8644616559526874e-06 -1.4312024895273355e-07 0.0000000000000000e+00  1.3948849200420415e+00 2.5364200978479138e-02 0.0000000000000000e+00  1.5532424324022112e+00 -9.7980805546178610e-03 0.0000000000000000e+00  1.4103097277482057e+00 2.9145837775586660e-03 0.0000000000000000e+00  1.5524331759897756e+00 -2.4335847578410914e-02 0.0000000000000000e+00  1.9610101830870836e+00 2.9431554764960694e-02 0.0000000000000000e+00  1.3209243465397464e+00 -4.5494111258357608e-03 0.0000000000000000e+00  1.3423424116130995e+00 1.1970566589031166e-02 0.0000000000000000e+00  1.2983483707272498e+00 -6.0311379873133981e-04 0.0000000000000000e+00  1.6693099613015727e+00 -1.0054326492400782e-01 0.0000000000000000e+00  1.5467119240865339e+00 7.4008339671946574e-02 0.0000000000000000e+00  1.8641774808864291e+00 9.3403312679144028e-03 0.0000000000000000e+00  1.1249986018209819e+00 -1.8177254112756043e-07 0.0000000000000000e+00  1.1250027107757983e+00 4.4387238904928101e-09 0.0000000000000000e+00  1.7702206195792023e+00 -1.6693053298745258e-01 0.0000000000000000e+00  1.6479218027084404e+00 1.4124168025949382e-01 0.0000000000000000e+00  7.3813825018698775e-01 1.0238556231738305e-01 0.0000000000000000e+00  1.3203139094082161e+00 1.0896342998133622e-02 0.0000000000000000e+00  1.4785137426597490e+00 2.3996879440262981e-02 0.0000000000000000e+00  1.1129471604204044e+00 1.7796061584682060e-03 0.0000000000000000e+00  1.3446305751282894e+00 5.2257347873015825e-03 0.0000000000000000e+00  1.3762756286586528e+00 1.5786762288508161e-02 0.0000000000000000e+00  1.2341531512745416e+00 -2.0278030620740781e-02 0.0000000000000000e+00  1.5477857048717578e+00 -1.1958289556401913e-01 0.0000000000000000e+00  1.2412092396565624e+00 8.7003501570219084e-03 0.0000000000000000e+00  1.2749373768660577e+00 -2.4722846715342882e-03 0.0000000000000000e+00  1.3737535698001169e+00 -5.6232518960116886e-03 0.0000000000000000e+00  1.2219065390705823e+00 1.8319422045172970e-03 0.0000000000000000e+00  1.4200196843363502e+00 3.2434447753918834e-03 0.0000000000000000e+00  1.3509640246934640e+00 1.0944187862439791e-02 0.0000000000000000e+00  1.0648846138333712e+00 1.3580409026562430e-03 0.0000000000000000e+00  1.0833093719437219e+00 5.1278080738800091e-03 0.0000000000000000e+00  -3.3046918790586022e-01 -1.5713711416935831e-02 0.0000000000000000e+00  1.7790127977811807e+00 1.2344127759861744e-01 0.0000000000000000e+00  4.2817707216808881e-01 4.5726455332666449e-02 0.0000000000000000e+00  1.2654817543509174e+00 -3.1098478152808404e-02 0.0000000000000000e+00  1.1818795589800690e+00 2.5550451221980536e-01 0.0000000000000000e+00  1.4256544875548132e+00 -1.2531743763457805e-02 0.0000000000000000e+00  1.0414406313659288e+00 -5.5833365480936509e-02 0.0000000000000000e+00  1.3811205453651039e+00 2.1764128841209651e-01 0.0000000000000000e+00  1.2135380906505087e+00 -2.0254007296180702e-02 0.0000000000000000e+00  8.4988445404384904e-07 -4.7536412991295253e-09 0.0000000000000000e+00  1.8385507976861013e+00 -6.1158889193204842e-02 0.0000000000000000e+00  1.1435433483131150e+00 -2.5633140846895619e-01 0.0000000000000000e+00  1.6275986529557445e+00 -7.0907948441246274e-02 0.0000000000000000e+00  -9.5037913608464904e-07 3.8425987741126971e-08 0.0000000000000000e+00  9.5225199327431054e-01 2.7240549113458914e-04 0.0000000000000000e+00  -1.9822520616974886e-06 3.0338461946075636e-07 0.0000000000000000e+00  -6.9019940931141011e-06 2.7059877265623326e-07 0.0000000000000000e+00  1.0887701970361612e+00 -3.9886959128379300e-02 0.0000000000000000e+00  9.6963808685104734e-07 -1.8946128801787389e-08 0.0000000000000000e+00  1.8264955596031411e+00 7.8236109427348974e-02 0.0000000000000000e+00  1.0236474657602281e+00 7.8834127255252451e-04 0.0000000000000000e+00  1.7926724531148424e+00 -1.1333417837786623e-01 0.0000000000000000e+00  -2.1645959558752267e-06 7.3527046428929651e-08 0.0000000000000000e+00  1.7977520446509092e+00 -1.4132842062197079e-01 0.0000000000000000e+00  -2.4452870184437396e-06 -3.4708425691324185e-07 0.0000000000000000e+00  1.0683318185336161e+00 9.6417819847864180e-06 0.0000000000000000e+00  1.6021041095326725e+00 1.2841983796366183e-01 0.0000000000000000e+00  -3.0406988800823440e-06 1.0623361878600233e-07 0.0000000000000000e+00  1.7223358174111043e+00 7.5300584972954096e-02 0.0000000000000000e+00  1.3595722798306937e+00 -3.0225976124655973e-01 0.0000000000000000e+00  1.3399728681466940e+00 -1.2276739366880750e-01 0.0000000000000000e+00  1.3729813817296166e+00 1.2470699952169489e-01 0.0000000000000000e+00  2.2156099487478120e-08 2.4655326769110994e-08 0.0000000000000000e+00  1.2036524836178524e+00 -6.9085605717520834e-03 0.0000000000000000e+00  1.0646984300769351e+00 -8.9780221922878285e-03 0.0000000000000000e+00  3.6286501961142248e-07 3.8650029679822912e-07 0.0000000000000000e+00  1.2479777104576568e+00 4.1392789542831571e-02 0.0000000000000000e+00  8.4448664765484971e-01 -3.3869419656962899e-02 0.0000000000000000e+00  1.1159994289381439e+00 1.0644506090507056e-02 0.0000000000000000e+00  1.1552183241467109e+00 4.7846589448905755e-02 0.0000000000000000e+00  1.0241753659873052e+00 -6.6294135430672160e-03 0.0000000000000000e+00  1.9204404213086137e+00 1.8455553475915512e-01 0.0000000000000000e+00  1.5087762019259476e+00 3.1838128326410531e-02 0.0000000000000000e+00  3.7277982893304150e-06 -1.7312783065448593e-07 0.0000000000000000e+00  -2.1661177910418487e-06 1.4143302553923598e-07 0.0000000000000000e+00  -8.0474719247345604e-07 -5.7150362460000931e-08 0.0000000000000000e+00  6.5625203826655865e-01 1.2222152618515909e-08 0.0000000000000000e+00  -2.9113439685825188e-06 -1.9536289669077191e-07 0.0000000000000000e+00  1.0195943630964279e+00 6.6760762124282386e-04 0.0000000000000000e+00  1.6274140806601818e+00 1.3209628778083668e-01 0.0000000000000000e+00  1.2828798119814611e+00 1.3360136021581849e-02 0.0000000000000000e+00  -3.9251726180739508e-07 -1.6409451596613599e-08 0.0000000000000000e+00  -4.5620977571149882e-06 -2.4964531780202221e-08 0.0000000000000000e+00  2.4592133717097624e-06 6.1632702534343784e-08 0.0000000000000000e+00  5.3957879994601357e-08 8.9939110151533504e-08 0.0000000000000000e+00  -9.1016873412501832e-07 1.5318680150454817e-08 0.0000000000000000e+00  -4.6911156950567679e-07 1.4870097883208356e-08 0.0000000000000000e+00  -2.3058265984835162e-06 -2.2184874324774669e-07 0.0000000000000000e+00  9.0044241850525962e-08 -1.4030479404197893e-08 0.0000000000000000e+00  1.8706180189023513e-07 -3.9693542401815798e-09 0.0000000000000000e+00  3.7901576373350660e-07 1.3456079086412055e-08 0.0000000000000000e+00  1.1611600621009157e-06 -8.6732015262186066e-08 0.0000000000000000e+00  -8.1885757503445418e-07 1.4359594600858484e-07 0.0000000000000000e+00  2.4459472515037654e-06 -2.7503220953856352e-07 0.0000000000000000e+00  6.3962322112050911e-07 1.7001028884846116e-07 0.0000000000000000e+00  -2.8843486963647240e-06 -1.7955040459267920e-07 0.0000000000000000e+00  -3.1329820816501952e-06 2.0034594283077988e-07 0.0000000000000000e+00  -1.1538995830903758e-06 -7.7209561014239481e-08 0.0000000000000000e+00  -3.5731160536782178e-06 -6.6213276817914172e-08 0.0000000000000000e+00  7.2510640965374806e-01 -4.4463648336559566e-02 0.0000000000000000e+00  8.5485677053964704e-01 -3.1457643500293745e-03 0.0000000000000000e+00  8.7375774970230924e-01 8.3212149083376988e-03 0.0000000000000000e+00  9.3802518441042260e-01 -3.0569818928027001e-03 0.0000000000000000e+00  1.6555756082933482e+00 -6.9328662053705720e-02 0.0000000000000000e+00  6.6825074780037744e-03 -1.0554656245477027e-02 0.0000000000000000e+00  3.8433579453784728e-02 -4.1456315260223059e-02 0.0000000000000000e+00  1.1476638775981500e+00 1.5653307879901022e-02 0.0000000000000000e+00  9.7301140950163345e-01 -3.2720831982492040e-04 0.0000000000000000e+00  1.0889339490308703e+00 1.6759264701279562e-02 0.0000000000000000e+00  1.1851989033939028e+00 2.1094843929157243e-02 0.0000000000000000e+00  8.0052124608180575e-01 4.3406167386574801e-03 0.0000000000000000e+00  1.2218898078160623e+00 3.8856252564222864e-02 0.0000000000000000e+00  1.1952806443677852e+00 3.3338697192223199e-03 0.0000000000000000e+00  1.3355515599165926e+00 4.0069808745369770e-03 0.0000000000000000e+00  1.1861861019057953e+00 -3.6391881212207024e-02 0.0000000000000000e+00  8.6123631607658857e-01 -1.3864815984490084e-03 0.0000000000000000e+00  9.1698906484668097e-01 -7.3782187705572671e-04 0.0000000000000000e+00  8.7919691515915765e-01 -2.5589541637056901e-02 0.0000000000000000e+00  8.1986422786231794e-01 -9.4027643222587497e-04 0.0000000000000000e+00  2.3215155056022019e-01 5.1790802088729694e-02 0.0000000000000000e+00  1.2304720829937721e+00 -6.8951410023881055e-02 0.0000000000000000e+00  9.5687185373282879e-01 -4.7462179312954274e-02 0.0000000000000000e+00  1.0776853128469899e+00 -9.9744287125367800e-02 0.0000000000000000e+00  1.5494557579202302e+00 -1.6909520267042069e-01 0.0000000000000000e+00  1.2569657681496262e+00 3.9162803790519958e-03 0.0000000000000000e+00  1.5335319454201004e+00 -2.6437828585685406e-02 0.0000000000000000e+00  1.4842893719732091e+00 3.1999847587825342e-02 0.0000000000000000e+00  1.2160972060310531e+00 3.4150549008076833e-02 0.0000000000000000e+00  1.4284693258600385e+00 -1.0781009560622495e-01 0.0000000000000000e+00  1.4822051655236299e+00 -1.0259641469117052e-01 0.0000000000000000e+00  1.0109044746589009e+00 3.9314179026091654e-02 0.0000000000000000e+00  7.9700488364947475e-02 -5.4357374159886999e-02 0.0000000000000000e+00  2.8543505588696289e-01 2.2851299220365714e-02 0.0000000000000000e+00  1.3522007039590263e+00 -1.6780499158268976e-03 0.0000000000000000e+00  9.4469251623639217e-01 1.4534896589676995e-02 0.0000000000000000e+00  1.2210275355986719e+00 -2.3943978194516394e-02 0.0000000000000000e+00  1.3396640448375041e+00 -4.4073347010376426e-03 0.0000000000000000e+00  7.8832913565480933e-01 1.3627373125639343e-02 0.0000000000000000e+00  8.8539154700240308e-01 1.9566625696069433e-03 0.0000000000000000e+00  1.4323248384302285e+00 -1.4986962813976710e-02 0.0000000000000000e+00  1.0212673729382977e+00 7.5505219098563253e-02 0.0000000000000000e+00  8.7134316232453346e-01 6.4329389017778842e-03 0.0000000000000000e+00  6.5624905552940993e-01 8.3048943890074288e-08 0.0000000000000000e+00  1.0770550023601180e+00 5.3204170898174342e-02 0.0000000000000000e+00  1.5680622954433836e+00 3.7131020736172436e-02 0.0000000000000000e+00  1.6029584140362654e+00 -6.3728797049919475e-02 0.0000000000000000e+00  1.0546521557018254e+00 1.2495174831762498e-01 0.0000000000000000e+00  1.0717177084600513e+00 7.1452652995291688e-02 0.0000000000000000e+00  7.5630786451495158e-01 7.1627985017970923e-03 0.0000000000000000e+00  8.0573719065090366e-01 8.8832007434648461e-02 0.0000000000000000e+00  1.5097764031338412e+00 -9.0276250686252869e-03 0.0000000000000000e+00  1.6564635918926649e+00 1.6740564963617541e-01 0.0000000000000000e+00  1.4286519612386526e+00 -3.1515390321870063e-02 0.0000000000000000e+00  1.5336823703010003e+00 -2.5705730712689331e-02 0.0000000000000000e+00  1.6077097697604947e+00 -1.7330507499326905e-02 0.0000000000000000e+00  1.4990137809705673e+00 -1.3697112014546961e-01 0.0000000000000000e+00  1.1438550926934707e+00 1.0976825048598558e-02 0.0000000000000000e+00  1.3695756243114732e+00 -2.5006013591072646e-03 0.0000000000000000e+00  1.2745802143171396e+00 1.9094663117482116e-02 0.0000000000000000e+00  8.0197882953530020e-01 6.4965039002159589e-03 0.0000000000000000e+00  1.5701824084893874e+00 5.1537681791212146e-02 0.0000000000000000e+00  9.4150237744620668e-01 9.3622823597196814e-02 0.0000000000000000e+00  1.3401443656662704e+00 -9.2983103080279406e-03 0.0000000000000000e+00  1.2233709576878704e+00 1.6065352339411063e-01 0.0000000000000000e+00  8.7695613173533893e-01 1.4677106418371541e-03 0.0000000000000000e+00  1.1776461488034138e+00 -2.2597152717647524e-03 0.0000000000000000e+00  1.3610340074174618e+00 9.6619668994583546e-02 0.0000000000000000e+00  1.5426600952243026e+00 3.0214070782862888e-02 0.0000000000000000e+00  1.3136923559437190e+00 7.6906242207122836e-03 0.0000000000000000e+00  1.4098355670262515e+00 6.7355670591072742e-03 0.0000000000000000e+00  1.3244216053607181e+00 -2.3633311974301397e-02 0.0000000000000000e+00  1.4347975911812596e+00 -3.8298599885564165e-03 0.0000000000000000e+00  6.6259816801197646e-01 -1.3318629370320430e-03 0.0000000000000000e+00  6.2726977607182322e-01 -9.3635873207896583e-03 0.0000000000000000e+00  7.4419767833900996e-01 4.2817270104013108e-03 0.0000000000000000e+00  8.3871015955177375e-01 3.8499408883697415e-03 0.0000000000000000e+00  1.3363677291705385e+00 3.9070045836478835e-04 0.0000000000000000e+00  7.1836074291703267e-01 -1.4817387099104755e-03 0.0000000000000000e+00  1.2930261758537360e+00 2.6376206155729366e-02 0.0000000000000000e+00  1.4121987408112011e+00 -2.6292132747785793e-03 0.0000000000000000e+00  8.0004349085262494e-01 -4.8638945470131104e-02 0.0000000000000000e+00  8.1902839656983539e-01 4.3444527098034487e-02 0.0000000000000000e+00  1.3434891571421976e+00 -2.2369068033851431e-02 0.0000000000000000e+00  1.3861322949803008e+00 7.2287295315526159e-03 0.0000000000000000e+00  5.4197503817268833e-01 2.4647940609909551e-03 0.0000000000000000e+00  1.3438276344803559e+00 -7.4645133796181970e-03 0.0000000000000000e+00  7.5403704439510977e-01 -1.2647892298788566e-02 0.0000000000000000e+00  7.7429075568998085e-01 -2.3185848836021782e-03 0.0000000000000000e+00  7.3880603976921089e-01 -7.9168725629416944e-02 0.0000000000000000e+00  1.2011398122018746e+00 -5.4402458576946887e-02 0.0000000000000000e+00  6.4396517337232628e-01 -1.3676325949767842e-04 0.0000000000000000e+00  1.5324199359686697e+00 2.1198750122354729e-02 0.0000000000000000e+00  1.5284392378858018e+00 4.7613812434954256e-01 0.0000000000000000e+00  1.0046473764163737e+00 1.8220215620540775e-01 0.0000000000000000e+00  7.4899792090078343e-01 1.8211597555119492e-03 0.0000000000000000e+00  1.3188765854201392e+00 -1.2562658730969295e-01 0.0000000000000000e+00  1.4488563039596634e+00 -5.4602952948202599e-01 0.0000000000000000e+00  6.7730474933866436e-01 9.0800911522596773e-03 0.0000000000000000e+00  7.7862435375386840e-01 2.0069453355045256e-03 0.0000000000000000e+00  1.4799140974835090e+00 7.0083948935295484e-03 0.0000000000000000e+00  3.8808398342625089e-01 6.6049961491854867e-02 0.0000000000000000e+00  1.4062539943546499e+00 1.0590398360273727e-07 0.0000000000000000e+00  1.3838395102100745e+00 -2.0830290346698205e-03 0.0000000000000000e+00  7.3935044319543386e-01 -5.7945254686797250e-04 0.0000000000000000e+00  1.4062505960035485e+00 1.9192380058577681e-08 0.0000000000000000e+00  7.3398986463020788e-01 4.2606292541935110e-03 0.0000000000000000e+00  1.8371824740833205e+00 -3.2976606014707460e-01 0.0000000000000000e+00  1.4392692255749251e+00 9.9011826534260335e-03 0.0000000000000000e+00  7.1443447196044996e-01 9.8580240969582109e-02 0.0000000000000000e+00  1.2798910171948601e+00 2.7069810715491482e-02 0.0000000000000000e+00  6.9072132621944116e-01 -9.5811516184060846e-03 0.0000000000000000e+00  5.2642114486785896e-01 -2.4289943478411347e-03 0.0000000000000000e+00  1.3777281128826580e+00 -4.8654101279928729e-03 0.0000000000000000e+00  4.8425533390328124e-01 -8.3160952681468216e-05 0.0000000000000000e+00  6.5105292677988658e-01 -3.7927420590503952e-03 0.0000000000000000e+00  1.3069130821812165e+00 -4.41262