<?xml version="1.0"?>
<VTKFile type="UnstructuredGrid"  version="0.1"  >
<UnstructuredGrid>
<Piece  NumberOfPoints="2426" NumberOfCells="4534">
<Points>
<DataArray  type="Float64"  NumberOfComponents="3"  format="ascii">0 0.41 0  0 0 0  2.2 0 0  2.2 0.41 0  0.2404508497187474 0.2293892626146237 0  0.25 0.2 0  0.2404508497187474 0.1706107373853764 0  0.2154508497187474 0.1524471741852423 0  0.1845491502812526 0.1524471741852423 0  0.1595491502812526 0.1706107373853764 0  0.15 0.2 0  0.1595491502812526 0.2293892626146237 0  0.1845491502812527 0.2475528258147577 0  0.2154508497187474 0.2475528258147577 0  0.5404508497187474 0.2293892626146237 0  0.55 0.2 0  0.5404508497187474 0.1706107373853764 0  0.5154508497187473 0.1524471741852423 0  0.4845491502812526 0.1524471741852423 0  0.4595491502812526 0.1706107373853764 0  0.45 0.2 0  0.4595491502812526 0.2293892626146237 0  0.4845491502812526 0.2475528258147577 0  0.5154508497187473 0.2475528258147577 0  1.1 0 0  0 0.205 0  1.1 0.41 0  0.55 0 0  0.55 0.41 0  0.275 0 0  0.275 0.41 0  1.65 0.41 0  1.65 0 0  1.375 0 0  1.375 0.41 0  1.925 0 0  1.925 0.41 0  0.8250000000000001 0.41 0  0.8250000000000001 0 0  1.5125 0.205 0  1.7875 0.205 0  0.9625000000000001 0.205 0  1.2375 0.205 0  2.2 0.205 0  0.7560964076246335 0.2151713709677419 0  1.99375 0.2152743902439024 0  2.0625 0 0  0.6875 0 0  2.0625 0.41 0  2.2 0.3075 0  0.6875 0.41 0  1.7875 0.41 0  1.375 0.1486128048780488 0  1.5125 0 0  1.7875 0 0  1.5125 0.41 0  0.9625000000000001 0 0  0.9625000000000001 0.41 0  0.4125 0 0  0.1375 0 0  0.1375 0.41 0  0.4125 0.41 0  1.2375 0 0  1.1 0.1486128048780487 0  1.2375 0.41 0  1.65 0.1486128048780487 0  1.126715909090909 0.2793064024390244 0  1.676715909090909 0.2793064024390244 0  1.348284090909091 0.2793064024390244 0  0.34375 0.3032389320646208 0  1.894702181800738 0.1282910975492754 0  2.092797818199262 0.1282910975492754 0  1.85625 0.3075 0  0.8630851210521902 0.286932093388664 0  0.89375 0.1025 0  0.35 0.1090282786671641 0  0 0.3075 0  0 0.1025 0  0.6526217841291382 0.288229645480046 0  0.7562500000000001 0.09660248895515888 0  0.6568633732316684 0.1557582854763441 0  2.099172119769978 0.25625 0  1.002356446954348 0.1010393851523063 0  1.99375 0.08395950269330846 0  1.459960956013612 0.3075 0  1.569025960719943 0.2986889805672169 0  1.03125 0.3278689922742084 0  0.75625 0.3247156761655783 0  1.959375 0.3126371951219512 0  1.749222215368287 0.1025 0  1.275777784631713 0.1025 0  2.2 0.1025 0  1.225938124459196 0.3075 0  1.550777784631713 0.1025 0  1.44375 0.07430640243902442 0  1.16875 0.07430640243902437 0  0.3528655045338512 0.2063263890916129 0  0.5890337614812103 0.08775733857679162 0  0.8504912436891263 0.190072835691683 0  1.899250267340833 0.2229966846119207 0  0.1020898364287272 0.3140258291809757 0  1.766482954545455 0.2934032012195123 0  1.051658316544432 0.2265720188842194 0  0.2 0.3400647632937836 0  1.421109702350723 0.2261157654379721 0  0.4812500000000001 0.41 0  0.4324401666997539 0.3216425986889796 0  0.098916018031319 0.09171660955420841 0  0.9508742791313441 0.2921736960864468 0  2.13125 0 0  2.118919042110979 0.3422084711244843 0  1.30625 0.41 0  0.20625 0 0  1.597888256393107 0.2173787389261347 0  0.4812500000000001 0 0  0.4324082967851086 0.08384041677422771 0  1.829299675393195 0.07400700849299596 0  0.568219932524165 0.3212274660843853 0  1.71875 0.41 0  0.268005226542646 0.08512186835670006 0  1.16875 0.41 0  2.038220665644273 0.332420740103091 0  0.6678017527842831 0.07701763866051195 0  0.89375 0.41 0  0.5111435174287687 0.07335351331957608 0  0.176193934632343 0.0734896648625108 0  0.07390688010811153 0.1697064032433452 0  0.05452951551825875 0.25625 0  0.61875 0.41 0  1.452769549894695 0.1548122580621249 0  1.369219062229598 0.07430640243902442 0  1.30625 0 0  1.720943423819132 0.1714577452753128 0  1.157188124459196 0.205 0  1.094219062229598 0.07430640243902437 0  1.304056576180868 0.1714577452753128 0  1.67579304192913 0.07430640243902437 0  0.2672907219039591 0.3037570723459566 0  1.209670467133757 0.1362100266964769 0  1.58125 0 0  1.03125 0 0  0.06875000000000001 0.41 0  0 0.35875 0  1.58125 0.41 0  1.631724228912893 0.3381867502687533 0  0.8240147050827157 0.1225233169495944 0  1.825608881788174 0.14499488549201 0  1.85625 0 0  1.44375 0 0  1.44375 0.41 0  1.85625 0.41 0  2.13125 0.41 0  0.7562500000000001 0.41 0  0.7562500000000001 0 0  0.89375 0 0  0.34375 0 0  0.34375 0.41 0  0.20625 0.41 0  0.06875000000000001 0 0  1.16875 0 0  1.03125 0.41 0  0.61875 0 0  1.71875 0 0  1.99375 0 0  1.99375 0.41 0  0.3972301426712326 0.2593842555611471 0  1.340625 0.3489494290853124 0  1.134375 0.3489494290853123 0  1.700180620188976 0.3438659752031281 0  0.5003922072260507 0.341765274319271 0  0.6212513815748759 0.2209216137134851 0  0.6885607720119526 0.215393731583638 0  1.033412357328477 0.1612902025713047 0  2.135782184673599 0.07126652247502523 0  1.668441847249787 0.2129203728327609 0  1.295782514339747 0.2378437748815763 0  1.409375 0.3520314716057996 0  2.129248544730567 0.1906135162504124 0  2.060771381434487 0.1989445750470348 0  2.013252586573865 0.1496169464686054 0  1.942766402200229 0.1734448904596831 0  1.895522487186454 0.06076163953489683 0  2.069553871656643 0.06605731020975725 0  0.9281250000000001 0.3539050257418612 0  1.274680914880868 0.3520219391081363 0  0.3030138498135347 0.2488370856812789 0  0.8223773249563684 0.341761430177996 0  0.9018164060227267 0.2326477848736739 0  0.8143027982392851 0.2440265179987191 0  0.7225087161029304 0.2699907246386231 0  1.614713220494657 0.09473434380863296 0  0.378125 0.3566194660323104 0  0.309375 0.3566194660323104 0  1.72990325744076 0.2380068107952482 0  0.6915936999299305 0.3429472631234433 0  0.6268087624932918 0.3466455500035671 0  1.356580098625191 0.2120393231351682 0  0.3060160055995138 0.1590148921620778 0  0.3954648733249218 0.156380553890791 0  2.034370752044885 0.2668681600792073 0  1.51768709249349 0.3426260931494756 0  1.561883724969884 0.1650446847858835 0  1.197344062229598 0.2523725417393646 0  0.9281250000000001 0.05124999999999999 0  1.804085235518364 0.3468178408964637 0  1.817887819205233 0.2589243285818559 0  0.9107805776841645 0.1653834539923287 0  1.905897727272727 0.3485060975609756 0  0 0.05125 0  0.844212276491354 0.0614201194265309 0  0.378125 0.05244637078450034 0  1.008571329007178 0.2705955969954818 0  0.7724048032149464 0.1559079561351474 0  0.7203054377831548 0.04941826955193545 0  1.192836486056382 0.3562350748565544 0  0.5967108020713719 0.1479294686523888 0  1.28257088594801 0.2944411014911587 0  0.7041890234548132 0.1222025174424443 0  1.474860187679412 0.2504218616229368 0  1.406767003493824 0.2829282258560709 0  0.3201325899091991 0.05890121548989159 0  0.5979220912872258 0.2727591995766724 0  1.845656689180403 0.1998310418452388 0  2.144958525570388 0.2909790873294231 0  2.2 0.15375 0  1.57794966442982 0.3540357145964566 0  0.9483181579620558 0.1214693369582054 0  0.0496154796471391 0.333125 0  1.508991196088596 0.1421783375065625 0  0.09776612425612034 0.2204896805326566 0  1.50436820029908 0.06143401634903343 0  1.223857000523521 0.0823554862453532 0  0.2531953886959507 0.3582003209055908 0  1.153316824384777 0.1289850171317837 0  2.148922302309752 0.1258841779285271 0  1.621993280276081 0.2841214267927899 0  1.550118654119087 0.2461998729100966 0  1.327182649291491 0.1216967252533594 0  1.753125 0.04556020050186112 0  1.271875 0.04556020050186116 0  0.9824282234771738 0.05051969257615314 0  1.039510847866381 0.05683351822678641 0  1.94956388244759 0.1180512551534177 0  1.949997712993411 0.04965831614304109 0  1.771961817615021 0.1530278789497521 0  1.909246823951428 0.2812757146784527 0  1.101974016627944 0.2038045618205013 0  0.7906250000000001 0.0444674049654372 0  1.948575539857022 0.2445328248721197 0  1.697271520964565 0.1233917627620729 0  1.065625 0.3689344961371042 0  1.085849084308977 0.3170853572226867 0  0.9840604787624379 0.3582077516409966 0  1.577403511714593 0.05463601888079143 0  0.05622663515370135 0.05493816910862376 0  0.8762396958822678 0.3392249777398821 0  1.751571320346033 0.3651102912045228 0  1.055327852410105 0.111864799513911 0  0.1583785085108421 0.2994699345738728 0  0.1455283439499995 0.3542795598723423 0  2.2 0.35875 0  0.225705107073232 0.05084786997482401 0  0.1455852234589313 0.1166494778469164 0  1.466879772203159 0.3611261772912453 0  1.990280163552011 0.3564754268533217 0  1.17471064520912 0.2990917256188288 0  0.7221925551074015 0.1739659241003985 0  0 0.25625 0  2.2 0.25625 0  2.2 0.05125 0  0 0.15375 0  1.853978576207987 0.35875 0  0.21965520498276 0.1015543880164422 0  1.515638456102889 0.2882700110184686 0  0.09048297387599738 0.3637717362208066 0  2.150453692751374 0.2387066338105111 0  1.323782677156475 0.04897634338873398 0  1.409375 0.03715320121951221 0  1.406484531114799 0.1087852750766809 0  1.134375 0.03715320121951218 0  1.627401732573545 0.04552157221025036 0  0.446875 0.3713289093361426 0  2.045405893604797 0.1105340662939892 0  1.255408269734577 0.1577307500159216 0  2.028125 0.03707597992059326 0  0.04420832937638274 0.128125 0  0.5817551710628505 0.3702615006034757 0  0.1197849154434487 0.2663398672460083 0  1.248258025468107 0.2565907092181813 0  0.1300647302703173 0.0508462728378621 0  0.7738123537510222 0.2761231499240648 0  1.203125 0.0366132337404304 0  0.5444207041612499 0.111205399508622 0  0.8016457771828226 0.1964238426015905 0  2.072662025974815 0.2975086504196739 0  0.4019040438866802 0.2103993403217561 0  0.4677372330974851 0.04827477407630658 0  0.8677218578847617 0.1432970430140788 0  1.058011122005847 0.2758866204059919 0  0.4429405887974043 0.2746184809910084 0  0.5843750000000001 0.03726989681835222 0  0.6318596133730142 0.1128692182767254 0  0.4862628454464408 0.2957029785303028 0  0.7805186758662764 0.3673578380827891 0  1.887722846421017 0.1760882698830035 0  0.3498893058880703 0.256189258793856 0  1.472640588990488 0.1118278026240017 0  1.865937103925594 0.2604137786483804 0
[...]
<PointData  Vectors="f_37"> 
<DataArray  type="Float64"  Name="f_37"  NumberOfComponents="3" format="ascii">-6.1330834760433770e-07 2.0211591235657081e-08 0.0000000000000000e+00  3.7389634768937504e-07 -3.0137643071516425e-08 0.0000000000000000e+00  -4.7725995983562234e-07 9.3030848042029506e-09 0.0000000000000000e+00  1.4765573382948314e-06 6.1145011697959684e-10 0.0000000000000000e+00  -9.8521955006425199e-07 7.0366743091169708e-08 0.0000000000000000e+00  -7.7601348301562750e-07 7.7972945407137125e-08 0.0000000000000000e+00  -1.6590029125810859e-06 2.7540590443812331e-07 0.0000000000000000e+00  1.1949359224850804e-06 2.8566575885225878e-07 0.0000000000000000e+00  2.9089748512491496e-06 -4.8675791841860301e-07 0.0000000000000000e+00  -9.7730360601492610e-07 7.2380170626686853e-08 0.0000000000000000e+00  -1.7477580956880319e-06 1.1233849990465805e-06 0.0000000000000000e+00  6.7784200292684822e-07 2.2016397082848536e-06 0.0000000000000000e+00  -3.7767106402487128e-06 -1.3104056982388509e-06 0.0000000000000000e+00  -3.5712257419046650e-06 -8.3151557308694121e-07 0.0000000000000000e+00  -1.9359296589109231e-06 1.7802398149662896e-07 0.0000000000000000e+00  -1.4100849584923185e-06 9.1437123314462010e-07 0.0000000000000000e+00  -3.8582855233184684e-06 -1.3679022636137668e-07 0.0000000000000000e+00  -3.1676900110984609e-06 -1.1284905853887530e-07 0.0000000000000000e+00  -2.2319632720525090e-06 -3.4408763658573795e-08 0.0000000000000000e+00  -1.2997720326244623e-06 -1.9251813441173360e-07 0.0000000000000000e+00  -1.0827876013457591e-06 1.7501443392267401e-08 0.0000000000000000e+00  -1.2092527133239138e-06 6.4043454478910965e-08 0.0000000000000000e+00  -2.4998085839495024e-07 2.1743515414633944e-07 0.0000000000000000e+00  -1.7956621306673104e-07 1.3588333301492932e-07 0.0000000000000000e+00  9.1639881984900037e-07 -1.3790657008654156e-07 0.0000000000000000e+00  1.5000025218137154e+00 1.6666117394096478e-08 0.0000000000000000e+00  -2.6435965015796419e-06 -1.8078063433356145e-07 0.0000000000000000e+00  -2.2858922072142331e-06 -8.9631337974327251e-08 0.0000000000000000e+00  -9.3856075584929013e-07 4.6284880872084141e-08 0.0000000000000000e+00  -2.6692980888824388e-06 9.3087795418928722e-08 0.0000000000000000e+00  -1.0465208102072943e-06 -2.3907208875853869e-08 0.0000000000000000e+00  1.2215092020962371e-06 1.3482840806824631e-07 0.0000000000000000e+00  -7.0794799652280045e-07 5.4746542666821235e-08 0.0000000000000000e+00  1.4444850996022825e-06 -1.2388950780679331e-07 0.0000000000000000e+00  2.0996297633754387e-06 -1.2839202027878461e-07 0.0000000000000000e+00  8.2619808102858307e-07 3.6717046686040371e-09 0.0000000000000000e+00  -1.3100053507710070e-06 -1.7489219592291513e-08 0.0000000000000000e+00  -4.5966449467697051e-07 8.8568506769600304e-08 0.0000000000000000e+00  -2.4608803545139535e-06 1.4359250900445373e-08 0.0000000000000000e+00  1.0307971024457183e+00 3.9925434362994196e-03 0.0000000000000000e+00  1.1300744420560880e+00 -3.2648013236973500e-02 0.0000000000000000e+00  6.1737760015343990e-01 -3.0287697342208784e-02 0.0000000000000000e+00  9.0619664584368931e-01 1.8325232511621020e-02 0.0000000000000000e+00  1.2290212881100826e+00 -3.7618072599136847e-02 0.0000000000000000e+00  2.1577037533776497e-01 -3.3019825810394317e-02 0.0000000000000000e+00  1.1769319289879272e+00 3.5537201180435178e-02 0.0000000000000000e+00  -1.5997709911963412e-06 -2.4133025375026984e-09 0.0000000000000000e+00  -1.2456594208667768e-06 -8.4015000254692380e-08 0.0000000000000000e+00  -1.9490227568821461e-07 1.0583744473639654e-07 0.0000000000000000e+00  1.2551591359881509e+00 3.9079433208222391e-03 0.0000000000000000e+00  -6.1886181347157711e-07 2.0978831250119897e-08 0.0000000000000000e+00  -6.6701257333928360e-07 -1.5305625585757559e-07 0.0000000000000000e+00  1.3282661468052595e+00 2.3014439280332451e-03 0.0000000000000000e+00  2.6804526885109043e-06 -3.0152285785637305e-08 0.0000000000000000e+00  -5.2526300150882096e-07 -5.3789495867904615e-08 0.0000000000000000e+00  -9.4121279749705601e-07 -4.9112997791769143e-08 0.0000000000000000e+00  -2.3139319746376279e-06 4.1446356294169070e-08 0.0000000000000000e+00  8.7336584771671721e-07 4.8790361527193334e-08 0.0000000000000000e+00  -7.9283817882053146e-07 -2.2080766433137784e-08 0.0000000000000000e+00  3.0064939720061601e-07 6.4879507763028767e-08 0.0000000000000000e+00  5.9960381487827725e-07 1.3372856696200841e-07 0.0000000000000000e+00  -2.6829601278565268e-06 1.1137439430589576e-07 0.0000000000000000e+00  -3.4184325308890113e-07 1.8785375608419311e-07 0.0000000000000000e+00  1.4154675002235897e+00 3.6689516864161990e-02 0.0000000000000000e+00  4.8856620690427659e-07 2.4821784842513405e-07 0.0000000000000000e+00  1.3015345098596800e+00 1.2679631928985233e-02 0.0000000000000000e+00  1.5710586512515012e+00 -1.1984056466533506e-02 0.0000000000000000e+00  1.4682413946160000e+00 -1.4107919741287977e-02 0.0000000000000000e+00  1.5220117282036552e+00 -1.0165462337505418e-02 0.0000000000000000e+00  1.9607796250989753e+00 2.9523622937773334e-02 0.0000000000000000e+00  1.3763741124810331e+00 1.3486135019576453e-02 0.0000000000000000e+00  1.2962429423707984e+00 4.8535846300495995e-03 0.0000000000000000e+00  1.2976381400912389e+00 6.0043563867095279e-03 0.0000000000000000e+00  1.6713426363770254e+00 -1.1138945608368503e-01 0.0000000000000000e+00  1.5542079364082055e+00 6.9721916078108237e-02 0.0000000000000000e+00  1.8644619338400188e+00 9.4082891873783145e-03 0.0000000000000000e+00  1.1249986000202139e+00 -1.7308278574673620e-07 0.0000000000000000e+00  1.1250027060118390e+00 1.5347258572056825e-08 0.0000000000000000e+00  1.7679329117310143e+00 -1.6426020243257508e-01 0.0000000000000000e+00  1.6427222504379699e+00 1.4004294120677344e-01 0.0000000000000000e+00  7.4491485134438873e-01 1.0407561976083479e-01 0.0000000000000000e+00  1.4061256075106736e+00 -1.5036216325784262e-02 0.0000000000000000e+00  1.4895239338535227e+00 3.8207331650097522e-02 0.0000000000000000e+00  1.1077555627711477e+00 -1.2432870945104950e-03 0.0000000000000000e+00  1.3573118178696706e+00 1.0036184177630681e-02 0.0000000000000000e+00  1.4172321382356647e+00 -4.9083993340942609e-03 0.0000000000000000e+00  1.2402847376321240e+00 -1.2279214639300208e-02 0.0000000000000000e+00  1.5519964508170603e+00 -1.2061865264219988e-01 0.0000000000000000e+00  1.2655285902834998e+00 -2.3234838666388014e-03 0.0000000000000000e+00  1.2984703970081086e+00 3.2111489411340210e-03 0.0000000000000000e+00  1.3872575521167934e+00 -5.1261229877775762e-03 0.0000000000000000e+00  1.2400040661229563e+00 1.8971915407320307e-03 0.0000000000000000e+00  1.4262702763312418e+00 -1.3562436700567365e-02 0.0000000000000000e+00  1.3223020269021595e+00 -2.1926826416756658e-03 0.0000000000000000e+00  1.0525865221339228e+00 -3.0143926757221018e-04 0.0000000000000000e+00  1.0821928250772981e+00 -6.9215353516436555e-03 0.0000000000000000e+00  -3.3037990217233143e-01 -1.5546432250115108e-02 0.0000000000000000e+00  1.7799021225576552e+00 1.2334931762910610e-01 0.0000000000000000e+00  4.0680425721833713e-01 3.3153537562980416e-02 0.0000000000000000e+00  1.1722715653276135e+00 -8.8392743470957092e-03 0.0000000000000000e+00  1.1818727861856271e+00 2.5548531615692077e-01 0.0000000000000000e+00  1.3901042181499748e+00 2.4654011180171909e-03 0.0000000000000000e+00  9.7091655028140789e-01 -3.3596374952239987e-02 0.0000000000000000e+00  1.3810795850745881e+00 2.1760414542585657e-01 0.0000000000000000e+00  1.1321629897679157e+00 -2.7800143246868168e-02 0.0000000000000000e+00  8.8137535120206457e-07 -1.3833890360568057e-08 0.0000000000000000e+00  1.8387044517891173e+00 -6.1060196319408087e-02 0.0000000000000000e+00  1.1435502311839891e+00 -2.5635075941065572e-01 0.0000000000000000e+00  1.6117355461916429e+00 -6.4148358294461694e-02 0.0000000000000000e+00  -8.1425288467335451e-07 1.8149588001394628e-08 0.0000000000000000e+00  9.4544502998257851e-01 1.9748314296601475e-03 0.0000000000000000e+00  -1.9598822474531526e-08 1.1529568391315590e-07 0.0000000000000000e+00  -6.9324351642497417e-06 2.7268592974093534e-07 0.0000000000000000e+00  1.0967752574141070e+00 2.4732668218379567e-02 0.0000000000000000e+00  9.2477141613192759e-07 -2.8952448655728800e-08 0.0000000000000000e+00  1.8263818159283345e+00 7.8295978771702301e-02 0.0000000000000000e+00  1.0232238664848410e+00 7.5331835273452540e-04 0.0000000000000000e+00  1.7921715760329660e+00 -1.1346649450598427e-01 0.0000000000000000e+00  -9.3747947279707292e-07 3.3656716641322582e-08 0.0000000000000000e+00  1.7978476988200165e+00 -1.4138897834422851e-01 0.0000000000000000e+00  -1.9439735197593808e-06 1.8176451982011385e-08 0.0000000000000000e+00  1.0628258574826317e+00 -1.9302211359913549e-03 0.0000000000000000e+00  1.6020274020209511e+00 1.3017281829403013e-01 0.0000000000000000e+00  -1.3860656335343163e-06 1.7475411412898622e-07 0.0000000000000000e+00  1.7223852862235662e+00 7.4983781388092446e-02 0.0000000000000000e+00  1.3596041878772078e+00 -3.0230129374199632e-01 0.0000000000000000e+00  1.3399756289823486e+00 -1.2278547621524379e-01 0.0000000000000000e+00  1.3729795632219741e+00 1.2470012287784081e-01 0.0000000000000000e+00  -1.1511601282460608e-07 4.8203514689565774e-09 0.0000000000000000e+00  1.3131019001902244e+00 8.9925585199345827e-03 0.0000000000000000e+00  1.0686353171242708e+00 8.9679811077749577e-04 0.0000000000000000e+00  -8.1605459388248344e-07 3.0973811393710985e-08 0.0000000000000000e+00  1.1505102901881283e+00 2.1156571782627697e-04 0.0000000000000000e+00  8.4040930745406295e-01 2.0188737142583638e-02 0.0000000000000000e+00  1.1038352721313713e+00 5.7117306034871482e-03 0.0000000000000000e+00  1.0758484031078062e+00 6.6204728178979235e-03 0.0000000000000000e+00  1.0423046689661617e+00 -1.5186804538826584e-03 0.0000000000000000e+00  1.9203514646736874e+00 1.8448168171379614e-01 0.0000000000000000e+00  1.4570746122917348e+00 1.0813346877809330e-02 0.0000000000000000e+00  2.4817062747707593e-06 7.6168009695915550e-08 0.0000000000000000e+00  9.7515686344729132e-08 -1.1279470814662572e-07 0.0000000000000000e+00  -8.0465408467212232e-07 -5.7200410197657773e-08 0.0000000000000000e+00  6.5625203761063888e-01 1.5166493240958619e-08 0.0000000000000000e+00  -1.1680531860551136e-06 4.9305684010603195e-08 0.0000000000000000e+00  1.0054762853044410e+00 -4.0448812666152588e-04 0.0000000000000000e+00  1.6173835928511833e+00 1.2181976569776731e-01 0.0000000000000000e+00  1.3371806840549865e+00 4.4881971124905286e-04 0.0000000000000000e+00  -3.7063160406343109e-08 -6.8210878576761948e-08 0.0000000000000000e+00  -2.2835566731622728e-06 -1.5341349295252877e-07 0.0000000000000000e+00  -1.2152280351110451e-06 -1.2486169789306298e-07 0.0000000000000000e+00  -2.0963907327633713e-06 -9.3411213067345624e-08 0.0000000000000000e+00  -8.4678486938838086e-08 1.4413404791705074e-08 0.0000000000000000e+00  -8.6610448172052446e-07 3.8326343452614036e-09 0.0000000000000000e+00  -1.9238942983768295e-06 -1.8322631380004671e-07 0.0000000000000000e+00  -1.7089514797071776e-06 9.5537403008060336e-08 0.0000000000000000e+00  1.5123120152244434e-07 -1.2991047381251805e-09 0.0000000000000000e+00  4.1002103425441837e-07 1.6585689074117220e-08 0.0000000000000000e+00  1.1832091939711162e-06 -8.4617319259511243e-08 0.0000000000000000e+00  -8.2043504903146060e-07 1.4354547374769398e-07 0.0000000000000000e+00  1.3398400181328685e-06 6.4751780955681009e-09 0.0000000000000000e+00  -1.6654995572364183e-06 -1.9849904866035231e-07 0.0000000000000000e+00  -2.7036993503337822e-06 -2.1456015285616704e-07 0.0000000000000000e+00  -3.1121016026028765e-06 -1.3786417891645454e-08 0.0000000000000000e+00  -1.0950712314954391e-06 5.4351558987644182e-08 0.0000000000000000e+00  -2.9876591209582409e-06 3.7955915668966904e-08 0.0000000000000000e+00  7.2458843101659065e-01 -4.4109699695774648e-02 0.0000000000000000e+00  8.5280640860305856e-01 7.6721984866037147e-03 0.0000000000000000e+00  8.7977667537211957e-01 1.5130259849183473e-04 0.0000000000000000e+00  9.2661205403691416e-01 4.6331449343657502e-03 0.0000000000000000e+00  1.6556364303646955e+00 -6.9512987612615706e-02 0.0000000000000000e+00  3.8714242889191408e-03 -1.4653038003928030e-02 0.0000000000000000e+00  3.3620954161858133e-02 -3.4418032443964866e-02 0.0000000000000000e+00  1.2098788876334445e+00 3.2902994009091233e-02 0.0000000000000000e+00  9.7828530945032299e-01 2.8498558809622121e-04 0.0000000000000000e+00  1.1215554343959628e+00 1.1960744035135371e-02 0.0000000000000000e+00  1.2744785199578688e+00 -2.2865196488461057e-02 0.0000000000000000e+00  8.1538611888826373e-01 9.4877626425335891e-03 0.0000000000000000e+00  1.1897607652672564e+00 -1.5401978351028312e-03 0.0000000000000000e+00  1.1796084791046439e+00 3.5408313683826374e-02 0.0000000000000000e+00  1.3100030411014492e+00 2.0977947750170079e-02 0.0000000000000000e+00  1.2548769039629539e+00 2.3108100672653429e-02 0.0000000000000000e+00  8.6050389668049976e-01 -1.6092646347479448e-03 0.0000000000000000e+00  9.2258774672816624e-01 -2.2644507199899694e-04 0.0000000000000000e+00  8.7590724070699078e-01 -2.2705737180289901e-02 0.0000000000000000e+00  8.0684055991126202e-01 2.3200220578738209e-03 0.0000000000000000e+00  2.3199782307204853e-01 5.1458777825217593e-02 0.0000000000000000e+00  1.2304654457109179e+00 -7.2915998918559807e-02 0.0000000000000000e+00  9.8182798881074584e-01 -7.2403421938982276e-02 0.0000000000000000e+00  1.0986915037728051e+00 -1.0439868286512595e-01 0.0000000000000000e+00  1.5496952913809718e+00 -1.6260601897473442e-01 0.0000000000000000e+00  1.2495695833316565e+00 -5.0795541756610916e-03 0.0000000000000000e+00  1.5334988604910966e+00 -2.6354237013036935e-02 0.0000000000000000e+00  1.4841835738040763e+00 3.2018472121915727e-02 0.0000000000000000e+00  1.3101432690591583e+00 -2.0203812127984170e-02 0.0000000000000000e+00  1.4300288881857606e+00 -1.0653041851065082e-01 0.0000000000000000e+00  1.4820813329490212e+00 -1.0168105003039468e-01 0.0000000000000000e+00  1.0222043383994346e+00 -2.7778324747710203e-02 0.0000000000000000e+00  7.9852090913139370e-02 -5.4706415955027787e-02 0.0000000000000000e+00  2.8529901661890200e-01 2.3175897934603364e-02 0.0000000000000000e+00  1.4039716021078747e+00 -1.6505177177149404e-03 0.0000000000000000e+00  9.5816638551864441e-01 2.8683105405695000e-03 0.0000000000000000e+00  1.2442985783403988e+00 2.5164959561169650e-02 0.0000000000000000e+00  1.3990819999736908e+00 -1.3911742967452992e-02 0.0000000000000000e+00  7.9342764520176468e-01 1.6503367558585402e-02 0.0000000000000000e+00  8.9805639456566866e-01 6.1589095207369117e-03 0.0000000000000000e+00  1.3776185698406549e+00 -9.3527471246644938e-03 0.0000000000000000e+00  9.9887201329008624e-01 5.3047915216453780e-02 0.0000000000000000e+00  8.8186802730815639e-01 1.1599571416484875e-03 0.0000000000000000e+00  6.5624905416402013e-01 8.5201007278461124e-08 0.0000000000000000e+00  1.0814687901015672e+00 4.9634948571091644e-02 0.0000000000000000e+00  1.5681390148719785e+00 3.7197716120261876e-02 0.0000000000000000e+00  1.5759023308543696e+00 -4.4509106788752278e-02 0.0000000000000000e+00  1.0451905085123931e+00 1.3023830546884294e-01 0.0000000000000000e+00  1.0699864384585254e+00 7.1512386797344604e-02 0.0000000000000000e+00  7.4932474346742595e-01 1.5614219611894713e-04 0.0000000000000000e+00  8.0619188647364892e-01 8.6616616588758910e-02 0.0000000000000000e+00  1.5031625952346894e+00 -1.4884127617626796e-02 0.0000000000000000e+00  1.6561408878717461e+00 1.7233230575297404e-01 0.0000000000000000e+00  1.3274381112345364e+00 -5.3290392175480567e-03 0.0000000000000000e+00  1.4877528196598544e+00 3.2696845599402740e-03 0.0000000000000000e+00  1.6078478341738489e+00 -1.7316311910514973e-02 0.0000000000000000e+00  1.4978452531703679e+00 -1.3784579329513874e-01 0.0000000000000000e+00  1.1330870658161949e+00 -2.9223040415792385e-02 0.0000000000000000e+00  1.3617654175756675e+00 -6.7926330638445036e-03 0.0000000000000000e+00  1.2631397300128209e+00 -2.0119886879277384e-02 0.0000000000000000e+00  7.9446569823141833e-01 4.4067762899020481e-04 0.0000000000000000e+00  1.5871276601701532e+00 5.6231613629466617e-02 0.0000000000000000e+00  9.4150195266457315e-01 9.3622490727245614e-02 0.0000000000000000e+00  1.4028527359095557e+00 1.7280318855034390e-02 0.0000000000000000e+00  1.2233669617032443e+00 1.6061716865986786e-01 0.0000000000000000e+00  8.7147585830051311e-01 -5.3087079035655099e-03 0.0000000000000000e+00  1.1875172369782920e+00 -9.2991920042755846e-03 0.0000000000000000e+00  1.3609550090209956e+00 9.6599534396440020e-02 0.0000000000000000e+00  1.5141133007942980e+00 1.9358956560868633e-02 0.0000000000000000e+00  1.2930295135850238e+00 -2.9496392203931313e-03 0.0000000000000000e+00  1.4682739544827594e+00 -1.0954777949942825e-02 0.0000000000000000e+00  1.2822141668777773e+00 4.9905299081954698e-03 0.0000000000000000e+00  1.4530080202801070e+00 1.8041899212438096e-03 0.0000000000000000e+00  6.6309862342084935e-01 -6.5454294235897745e-04 0.0000000000000000e+00  6.3699208968825172e-01 -6.0361658921722150e-03 0.0000000000000000e+00  7.4298744890372947e-01 9.5677828087793512e-03 0.0000000000000000e+00  8.3114399925535987e-01 6.8692967249310817e-03 0.0000000000000000e+00  1.3333209182061849e+00 7.4119714584333935e-03 0.0000000000000000e+00  7.2122784298633102e-01 -1.6257834327187911e-03 0.0000000000000000e+00  1.2685935266373176e+00 -7.2502636104243437e-03 0.0000000000000000e+00  1.3851120893688704e+00 2.8319796529262509e-03 0.0000000000000000e+00  7.8844452042213520e-01 2.3808120457907006e-03 0.0000000000000000e+00  8.2001817312916869e-01 4.1325915613054050e-02 0.0000000000000000e+00  1.2664296279662637e+00 1.0275181605479411e-02 0.0000000000000000e+00  1.3599585491956083e+00 1.7565346314639444e-03 0.0000000000000000e+00  5.5076325756870237e-01 2.7927795313078007e-03 0.0000000000000000e+00  1.3598085251749035e+00 -7.6082016475575009e-03 0.0000000000000000e+00  7.5719584167339238e-01 -7.4248060167212068e-03 0.0000000000000000e+00  7.8365847459040416e-01 -5.6691080483240539e-03 0.0000000000000000e+00  7.3880630667995884e-01 -7.9170041341637909e-02 0.0000000000000000e+00  1.1964463217787800e+00 -5.6394012298610560e-02 0.0000000000000000e+00  6.4844576841904633e-01 4.4182212826869485e-03 0.0000000000000000e+00  1.5359858893794849e+00 3.3529635255024691e-02 0.0000000000000000e+00  1.5284177508055796e+00 4.7609490772236407e-01 0.0000000000000000e+00  1.0046306788220283e+00 1.8218014695339235e-01 0.0000000000000000e+00  7.5089705210682478e-01 2.1925473051802057e-03 0.0000000000000000e+00  1.3189448360595768e+00 -1.2565739348025859e-01 0.0000000000000000e+00  1.4488805824325455e+00 -5.4607634940381344e-01 0.0000000000000000e+00  6.9019867888506126e-01 5.7336645525969936e-03 0.0000000000000000e+00  7.7588090011460309e-01 8.9377505861071031e-05 0.0000000000000000e+00  1.5069012089090361e+00 -1.3307434735802670e-02 0.0000000000000000e+00  3.9267040033449785e-01 7.8947730213603906e-02 0.0000000000000000e+00  1.4062539924895201e+00 1.2391630256542143e-07 0.0000000000000000e+00  1.3808419136001366e+00 -1.6649406191742433e-02 0.0000000000000000e+00  7.4047980893111987e-01 2.7199249617789828e-04 0.0000000000000000e+00  1.4062505919654587e+00 3.7226378712710687e-08 0.0000000000000000e+00  7.4611114666164857e-01 3.0444799635740171e-03 0.0000000000000000e+00  1.8372246910736056e+00 -3.2983311207762467e-01 0.0000000000000000e+00  1.4543588513641625e+00 3.1821321929350150e-03 0.0000000000000000e+00  7.1443167554309162e-01 9.8572420026706964e-02 0.0000000000000000e+00  1.3537106260742944e+00 -2.3941288611108523e-02 0.0000000000000000e+00  6.9271965929315626e-01 -3.1395530919297479e-03 0.0000000000000000e+00  5.1872536442274364e-01 -1.3689858830050257e-03 0.0000000000000000e+00  1.4128410211249365e+00 9.2720690718206978e-03 0.0000000000000000e+00  4.8440385770152644e-01 -4.4683162124515294e-03 0.0000000000000000e+00  6.6064827921421387e-01 -3.2278712387558191e-03 0.0000000000000000e+00  1.3070084365557626e+00 -4.4154747