<?xml version="1.0"?>
<VTKFile type="UnstructuredGrid"  version="0.1"  >
<UnstructuredGrid>
<Piece  NumberOfPoints="2426" NumberOfCells="4534">
<Points>
<DataArray  type="Float64"  NumberOfComponents="3"  format="ascii">0 0.41 0  0 0 0  2.2 0 0  2.2 0.41 0  0.2404508497187474 0.2293892626146237 0  0.25 0.2 0  0.2404508497187474 0.1706107373853764 0  0.2154508497187474 0.1524471741852423 0  0.1845491502812526 0.1524471741852423 0  0.1595491502812526 0.1706107373853764 0  0.15 0.2 0  0.1595491502812526 0.2293892626146237 0  0.1845491502812527 0.2475528258147577 0  0.2154508497187474 0.2475528258147577 0  0.5404508497187474 0.2293892626146237 0  0.55 0.2 0  0.5404508497187474 0.1706107373853764 0  0.5154508497187473 0.1524471741852423 0  0.4845491502812526 0.1524471741852423 0  0.4595491502812526 0.1706107373853764 0  0.45 0.2 0  0.4595491502812526 0.2293892626146237 0  0.4845491502812526 0.2475528258147577 0  0.5154508497187473 0.2475528258147577 0  1.1 0 0  0 0.205 0  1.1 0.41 0  0.55 0 0  0.55 0.41 0  0.275 0 0  0.275 0.41 0  1.65 0.41 0  1.65 0 0  1.375 0 0  1.375 0.41 0  1.925 0 0  1.925 0.41 0  0.8250000000000001 0.41 0  0.8250000000000001 0 0  1.5125 0.205 0  1.7875 0.205 0  0.9625000000000001 0.205 0  1.2375 0.205 0  2.2 0.205 0  0.7560964076246335 0.2151713709677419 0  1.99375 0.2152743902439024 0  2.0625 0 0  0.6875 0 0  2.0625 0.41 0  2.2 0.3075 0  0.6875 0.41 0  1.7875 0.41 0  1.375 0.1486128048780488 0  1.5125 0 0  1.7875 0 0  1.5125 0.41 0  0.9625000000000001 0 0  0.9625000000000001 0.41 0  0.4125 0 0  0.1375 0 0  0.1375 0.41 0  0.4125 0.41 0  1.2375 0 0  1.1 0.1486128048780487 0  1.2375 0.41 0  1.65 0.1486128048780487 0  1.126715909090909 0.2793064024390244 0  1.676715909090909 0.2793064024390244 0  1.348284090909091 0.2793064024390244 0  0.34375 0.3032389320646208 0  1.894702181800738 0.1282910975492754 0  2.092797818199262 0.1282910975492754 0  1.85625 0.3075 0  0.8630851210521902 0.286932093388664 0  0.89375 0.1025 0  0.35 0.1090282786671641 0  0 0.3075 0  0 0.1025 0  0.6526217841291382 0.288229645480046 0  0.7562500000000001 0.09660248895515888 0  0.6568633732316684 0.1557582854763441 0  2.099172119769978 0.25625 0  1.002356446954348 0.1010393851523063 0  1.99375 0.08395950269330846 0  1.459960956013612 0.3075 0  1.569025960719943 0.2986889805672169 0  1.03125 0.3278689922742084 0  0.75625 0.3247156761655783 0  1.959375 0.3126371951219512 0  1.749222215368287 0.1025 0  1.275777784631713 0.1025 0  2.2 0.1025 0  1.225938124459196 0.3075 0  1.550777784631713 0.1025 0  1.44375 0.07430640243902442 0  1.16875 0.07430640243902437 0  0.3528655045338512 0.2063263890916129 0  0.5890337614812103 0.08775733857679162 0  0.8504912436891263 0.190072835691683 0  1.899250267340833 0.2229966846119207 0  0.1020898364287272 0.3140258291809757 0  1.766482954545455 0.2934032012195123 0  1.051658316544432 0.2265720188842194 0  0.2 0.3400647632937836 0  1.421109702350723 0.2261157654379721 0  0.4812500000000001 0.41 0  0.4324401666997539 0.3216425986889796 0  0.098916018031319 0.09171660955420841 0  0.9508742791313441 0.2921736960864468 0  2.13125 0 0  2.118919042110979 0.3422084711244843 0  1.30625 0.41 0  0.20625 0 0  1.597888256393107 0.2173787389261347 0  0.4812500000000001 0 0  0.4324082967851086 0.08384041677422771 0  1.829299675393195 0.07400700849299596 0  0.568219932524165 0.3212274660843853 0  1.71875 0.41 0  0.268005226542646 0.08512186835670006 0  1.16875 0.41 0  2.038220665644273 0.332420740103091 0  0.6678017527842831 0.07701763866051195 0  0.89375 0.41 0  0.5111435174287687 0.07335351331957608 0  0.176193934632343 0.0734896648625108 0  0.07390688010811153 0.1697064032433452 0  0.05452951551825875 0.25625 0  0.61875 0.41 0  1.452769549894695 0.1548122580621249 0  1.369219062229598 0.07430640243902442 0  1.30625 0 0  1.720943423819132 0.1714577452753128 0  1.157188124459196 0.205 0  1.094219062229598 0.07430640243902437 0  1.304056576180868 0.1714577452753128 0  1.67579304192913 0.07430640243902437 0  0.2672907219039591 0.3037570723459566 0  1.209670467133757 0.1362100266964769 0  1.58125 0 0  1.03125 0 0  0.06875000000000001 0.41 0  0 0.35875 0  1.58125 0.41 0  1.631724228912893 0.3381867502687533 0  0.8240147050827157 0.1225233169495944 0  1.825608881788174 0.14499488549201 0  1.85625 0 0  1.44375 0 0  1.44375 0.41 0  1.85625 0.41 0  2.13125 0.41 0  0.7562500000000001 0.41 0  0.7562500000000001 0 0  0.89375 0 0  0.34375 0 0  0.34375 0.41 0  0.20625 0.41 0  0.06875000000000001 0 0  1.16875 0 0  1.03125 0.41 0  0.61875 0 0  1.71875 0 0  1.99375 0 0  1.99375 0.41 0  0.3972301426712326 0.2593842555611471 0  1.340625 0.3489494290853124 0  1.134375 0.3489494290853123 0  1.700180620188976 0.3438659752031281 0  0.5003922072260507 0.341765274319271 0  0.6212513815748759 0.2209216137134851 0  0.6885607720119526 0.215393731583638 0  1.033412357328477 0.1612902025713047 0  2.135782184673599 0.07126652247502523 0  1.668441847249787 0.2129203728327609 0  1.295782514339747 0.2378437748815763 0  1.409375 0.3520314716057996 0  2.129248544730567 0.1906135162504124 0  2.060771381434487 0.1989445750470348 0  2.013252586573865 0.1496169464686054 0  1.942766402200229 0.1734448904596831 0  1.895522487186454 0.06076163953489683 0  2.069553871656643 0.06605731020975725 0  0.9281250000000001 0.3539050257418612 0  1.274680914880868 0.3520219391081363 0  0.3030138498135347 0.2488370856812789 0  0.8223773249563684 0.341761430177996 0  0.9018164060227267 0.2326477848736739 0  0.8143027982392851 0.2440265179987191 0  0.7225087161029304 0.2699907246386231 0  1.614713220494657 0.09473434380863296 0  0.378125 0.3566194660323104 0  0.309375 0.3566194660323104 0  1.72990325744076 0.2380068107952482 0  0.6915936999299305 0.3429472631234433 0  0.6268087624932918 0.3466455500035671 0  1.356580098625191 0.2120393231351682 0  0.3060160055995138 0.1590148921620778 0  0.3954648733249218 0.156380553890791 0  2.034370752044885 0.2668681600792073 0  1.51768709249349 0.3426260931494756 0  1.561883724969884 0.1650446847858835 0  1.197344062229598 0.2523725417393646 0  0.9281250000000001 0.05124999999999999 0  1.804085235518364 0.3468178408964637 0  1.817887819205233 0.2589243285818559 0  0.9107805776841645 0.1653834539923287 0  1.905897727272727 0.3485060975609756 0  0 0.05125 0  0.844212276491354 0.0614201194265309 0  0.378125 0.05244637078450034 0  1.008571329007178 0.2705955969954818 0  0.7724048032149464 0.1559079561351474 0  0.7203054377831548 0.04941826955193545 0  1.192836486056382 0.3562350748565544 0  0.5967108020713719 0.1479294686523888 0  1.28257088594801 0.2944411014911587 0  0.7041890234548132 0.1222025174424443 0  1.474860187679412 0.2504218616229368 0  1.406767003493824 0.2829282258560709 0  0.3201325899091991 0.05890121548989159 0  0.5979220912872258 0.2727591995766724 0  1.845656689180403 0.1998310418452388 0  2.144958525570388 0.2909790873294231 0  2.2 0.15375 0  1.57794966442982 0.3540357145964566 0  0.9483181579620558 0.1214693369582054 0  0.0496154796471391 0.333125 0  1.508991196088596 0.1421783375065625 0  0.09776612425612034 0.2204896805326566 0  1.50436820029908 0.06143401634903343 0  1.223857000523521 0.0823554862453532 0  0.2531953886959507 0.3582003209055908 0  1.153316824384777 0.1289850171317837 0  2.148922302309752 0.1258841779285271 0  1.621993280276081 0.2841214267927899 0  1.550118654119087 0.2461998729100966 0  1.327182649291491 0.1216967252533594 0  1.753125 0.04556020050186112 0  1.271875 0.04556020050186116 0  0.9824282234771738 0.05051969257615314 0  1.039510847866381 0.05683351822678641 0  1.94956388244759 0.1180512551534177 0  1.949997712993411 0.04965831614304109 0  1.771961817615021 0.1530278789497521 0  1.909246823951428 0.2812757146784527 0  1.101974016627944 0.2038045618205013 0  0.7906250000000001 0.0444674049654372 0  1.948575539857022 0.2445328248721197 0  1.697271520964565 0.1233917627620729 0  1.065625 0.3689344961371042 0  1.085849084308977 0.3170853572226867 0  0.9840604787624379 0.3582077516409966 0  1.577403511714593 0.05463601888079143 0  0.05622663515370135 0.05493816910862376 0  0.8762396958822678 0.3392249777398821 0  1.751571320346033 0.3651102912045228 0  1.055327852410105 0.111864799513911 0  0.1583785085108421 0.2994699345738728 0  0.1455283439499995 0.3542795598723423 0  2.2 0.35875 0  0.225705107073232 0.05084786997482401 0  0.1455852234589313 0.1166494778469164 0  1.466879772203159 0.3611261772912453 0  1.990280163552011 0.3564754268533217 0  1.17471064520912 0.2990917256188288 0  0.7221925551074015 0.1739659241003985 0  0 0.25625 0  2.2 0.25625 0  2.2 0.05125 0  0 0.15375 0  1.853978576207987 0.35875 0  0.21965520498276 0.1015543880164422 0  1.515638456102889 0.2882700110184686 0  0.09048297387599738 0.3637717362208066 0  2.150453692751374 0.2387066338105111 0  1.323782677156475 0.04897634338873398 0  1.409375 0.03715320121951221 0  1.406484531114799 0.1087852750766809 0  1.134375 0.03715320121951218 0  1.627401732573545 0.04552157221025036 0  0.446875 0.3713289093361426 0  2.045405893604797 0.1105340662939892 0  1.255408269734577 0.1577307500159216 0  2.028125 0.03707597992059326 0  0.04420832937638274 0.128125 0  0.5817551710628505 0.3702615006034757 0  0.1197849154434487 0.2663398672460083 0  1.248258025468107 0.2565907092181813 0  0.1300647302703173 0.0508462728378621 0  0.7738123537510222 0.2761231499240648 0  1.203125 0.0366132337404304 0  0.5444207041612499 0.111205399508622 0  0.8016457771828226 0.1964238426015905 0  2.072662025974815 0.2975086504196739 0  0.4019040438866802 0.2103993403217561 0  0.4677372330974851 0.04827477407630658 0  0.8677218578847617 0.1432970430140788 0  1.058011122005847 0.2758866204059919 0  0.4429405887974043 0.2746184809910084 0  0.5843750000000001 0.03726989681835222 0  0.6318596133730142 0.1128692182767254 0  0.4862628454464408 0.2957029785303028 0  0.7805186758662764 0.3673578380827891 0  1.887722846421017 0.1760882698830035 0  0.3498893058880703 0.256189258793856 0  1.472640588990488 0.1118278026240017 0  1.865937103925594 0.2604137786483804 0
[...]
<PointData  Vectors="f_37"> 
<DataArray  type="Float64"  Name="f_37"  NumberOfComponents="3" format="ascii">-6.0919649111292061e-07 2.0595632164459119e-08 0.0000000000000000e+00  3.7057283498694482e-07 -2.9333888122198989e-08 0.0000000000000000e+00  -1.1910312700587784e-06 7.2625211604829515e-08 0.0000000000000000e+00  1.7087950135462330e-06 -4.4321689435742999e-08 0.0000000000000000e+00  -9.8306748180669475e-07 2.3809327206606671e-07 0.0000000000000000e+00  -7.8252819939794713e-07 3.5834683854455229e-07 0.0000000000000000e+00  -1.6782997541483623e-06 4.2893583680281085e-07 0.0000000000000000e+00  1.2114583856330287e-06 2.6961236258098666e-07 0.0000000000000000e+00  2.8026825196658772e-06 -5.7251648998373392e-07 0.0000000000000000e+00  -1.0587468685335502e-06 1.4219646920011311e-07 0.0000000000000000e+00  -1.7396335722241508e-06 1.2060677537328898e-06 0.0000000000000000e+00  8.3436618072762559e-07 2.2440337961574018e-06 0.0000000000000000e+00  -3.6390574875689114e-06 -1.3491666061253261e-06 0.0000000000000000e+00  -3.5754083108242791e-06 -8.9335315105142187e-07 0.0000000000000000e+00  -1.5912675893722815e-06 3.8783186950116981e-07 0.0000000000000000e+00  -1.3618339251399014e-06 1.1100222236141609e-06 0.0000000000000000e+00  -3.9926846712817857e-06 4.3307907795926222e-08 0.0000000000000000e+00  -2.5030796798877484e-06 1.4343371379019325e-07 0.0000000000000000e+00  -1.5828296457438484e-06 -4.9149666209744674e-07 0.0000000000000000e+00  -3.3267057467805012e-06 1.6320195358869697e-08 0.0000000000000000e+00  -8.9203829918373946e-07 -3.0102091875871962e-07 0.0000000000000000e+00  9.6837328088470809e-07 -2.1972321441320969e-07 0.0000000000000000e+00  -6.5627416272763100e-07 2.6849755909718966e-07 0.0000000000000000e+00  -8.4550699882376577e-07 4.2993626112387204e-08 0.0000000000000000e+00  1.8726828386316065e-06 4.3460771995809094e-08 0.0000000000000000e+00  1.5000025296150097e+00 5.1904889824509423e-08 0.0000000000000000e+00  -4.0807958015285827e-06 -1.2599925577874784e-07 0.0000000000000000e+00  -2.4429323006210367e-06 -7.5985973796206243e-08 0.0000000000000000e+00  -7.5916408703402037e-07 6.3645227169544406e-08 0.0000000000000000e+00  -2.6484102642723709e-06 9.1818970045859006e-08 0.0000000000000000e+00  -1.0656436271684693e-06 -2.5222506203177894e-08 0.0000000000000000e+00  4.0065297164744557e-06 5.0932692833881910e-07 0.0000000000000000e+00  -4.9521298423172452e-08 -2.3916740319469666e-07 0.0000000000000000e+00  2.6219156321058895e-06 -4.9424643301136554e-07 0.0000000000000000e+00  3.1467216636786955e-07 -4.7264469442058533e-07 0.0000000000000000e+00  2.8306990331749081e-06 -7.0618539326422861e-09 0.0000000000000000e+00  -1.0569136692385773e-06 -5.7601833303478576e-08 0.0000000000000000e+00  -3.8650961472783886e-07 1.4898118875557993e-07 0.0000000000000000e+00  -2.5697265542532642e-06 1.0146194757684419e-07 0.0000000000000000e+00  1.1032465210573204e+00 7.0509495429295493e-02 0.0000000000000000e+00  1.2182572136150589e+00 -1.0451232867072842e-01 0.0000000000000000e+00  6.1693186267348210e-01 -4.1373938473041508e-02 0.0000000000000000e+00  9.6752791400873384e-01 -2.7382780008594872e-03 0.0000000000000000e+00  1.1895620110847285e+00 -8.9314939726184039e-02 0.0000000000000000e+00  2.1374652720408707e-01 -3.0529643494500359e-02 0.0000000000000000e+00  1.1722050089420006e+00 1.1189745398769688e-01 0.0000000000000000e+00  -2.1712923017019572e-06 -8.6637230468238011e-09 0.0000000000000000e+00  -1.2602248419754296e-06 -1.1046662188219178e-07 0.0000000000000000e+00  -9.0030718036600789e-07 4.1236397603448074e-07 0.0000000000000000e+00  1.2495439606400189e+00 2.2794553400179763e-02 0.0000000000000000e+00  -6.4772509259561422e-07 -1.1202533327508966e-08 0.0000000000000000e+00  -1.5796098935294374e-06 -5.6117457969398640e-07 0.0000000000000000e+00  1.3791729404403252e+00 -1.1539751404955095e-02 0.0000000000000000e+00  2.5477254649121988e-06 2.5307841535464529e-07 0.0000000000000000e+00  -2.0899319081408618e-06 8.0821049394681909e-08 0.0000000000000000e+00  -2.2708163582888761e-06 -8.3865819803983659e-08 0.0000000000000000e+00  -2.0873537932876415e-06 -8.0917468002692995e-08 0.0000000000000000e+00  7.7614763915120701e-07 -1.4840197615031582e-08 0.0000000000000000e+00  -7.2598438013037785e-07 -3.1729304309013762e-08 0.0000000000000000e+00  2.8799428043858354e-07 6.4754885118484166e-08 0.0000000000000000e+00  6.2556643781040354e-07 1.3371933994964151e-07 0.0000000000000000e+00  -2.7478271058667092e-06 1.0318814522116529e-07 0.0000000000000000e+00  -2.3367589603850608e-06 3.2777707930077540e-07 0.0000000000000000e+00  1.4152304503431665e+00 4.9901758136516768e-02 0.0000000000000000e+00  3.6115069516757514e-06 5.0023868770663791e-07 0.0000000000000000e+00  1.1975255803649967e+00 4.5468913936702965e-02 0.0000000000000000e+00  1.5997464460006958e+00 -1.8827051980121579e-02 0.0000000000000000e+00  1.5223310119888256e+00 -5.1254247043450572e-02 0.0000000000000000e+00  1.4726043679230247e+00 5.3671065960237884e-03 0.0000000000000000e+00  1.9605510989774562e+00 3.0829601539977720e-02 0.0000000000000000e+00  1.4270472097353950e+00 3.6892672008629751e-02 0.0000000000000000e+00  1.2084906354945697e+00 9.9827585030441840e-03 0.0000000000000000e+00  1.2675080711677755e+00 1.4571326953240449e-02 0.0000000000000000e+00  1.6680919773578449e+00 -1.1533027929330690e-01 0.0000000000000000e+00  1.5556743523495336e+00 6.9543292154174915e-02 0.0000000000000000e+00  1.8656060993447887e+00 1.0904968702599794e-02 0.0000000000000000e+00  1.1249985986856497e+00 -1.5861316851287969e-07 0.0000000000000000e+00  1.1250027280005124e+00 3.3394590672180396e-08 0.0000000000000000e+00  1.7671657663945972e+00 -1.6513902873245315e-01 0.0000000000000000e+00  1.6436496315262235e+00 1.4436078290702040e-01 0.0000000000000000e+00  7.4040183164131601e-01 9.9212704664633000e-02 0.0000000000000000e+00  1.4029266780928484e+00 -3.6076432911389414e-02 0.0000000000000000e+00  1.4857498883789679e+00 4.4669281144705059e-02 0.0000000000000000e+00  1.1169726373326241e+00 -1.7858251323079197e-02 0.0000000000000000e+00  1.3461346932241054e+00 1.3168872435290946e-02 0.0000000000000000e+00  1.4509734270508612e+00 -1.5977648379045063e-02 0.0000000000000000e+00  1.2432337877554476e+00 -1.0577775294695531e-02 0.0000000000000000e+00  1.5498368605855750e+00 -1.1878127575558234e-01 0.0000000000000000e+00  1.2602789755480537e+00 2.5016459512392657e-02 0.0000000000000000e+00  1.2755081057505302e+00 -2.1737011946015510e-02 0.0000000000000000e+00  1.3945258291280254e+00 -4.3330647563431541e-03 0.0000000000000000e+00  1.2560798765385379e+00 4.1919346238245323e-04 0.0000000000000000e+00  1.4164064852322118e+00 -2.3288824312412134e-02 0.0000000000000000e+00  1.2744430757099803e+00 -1.4799360770975486e-02 0.0000000000000000e+00  1.0247278204659427e+00 -3.1020932817863900e-03 0.0000000000000000e+00  1.0772981283777432e+00 -1.3709187887316475e-02 0.0000000000000000e+00  -3.3010183431428042e-01 -1.2032198339079930e-02 0.0000000000000000e+00  1.7807148762570448e+00 1.2172300459147402e-01 0.0000000000000000e+00  4.1143495411400888e-01 2.7664347643555822e-02 0.0000000000000000e+00  1.1313826750351539e+00 -4.1572528724721440e-02 0.0000000000000000e+00  1.1818228958825792e+00 2.5541584187496263e-01 0.0000000000000000e+00  1.3379904752412730e+00 2.6557394698597383e-02 0.0000000000000000e+00  9.3453440918573949e-01 -9.2738167290712745e-03 0.0000000000000000e+00  1.3809654572763266e+00 2.1762544347957358e-01 0.0000000000000000e+00  1.0558862992599605e+00 -6.6985724664545804e-02 0.0000000000000000e+00  9.2270776709703226e-07 -1.7606648354104361e-08 0.0000000000000000e+00  1.8410731613391638e+00 -6.1202631662638146e-02 0.0000000000000000e+00  1.1436011797489061e+00 -2.5642643489519179e-01 0.0000000000000000e+00  1.6036156534961066e+00 -6.1111922802652652e-02 0.0000000000000000e+00  -1.3090264549215533e-06 1.8627539918646193e-07 0.0000000000000000e+00  9.8902801095419368e-01 3.7903402408062735e-03 0.0000000000000000e+00  8.9091076702987697e-07 -2.0373932035251221e-07 0.0000000000000000e+00  -6.8983672686421282e-06 2.7099321235601808e-07 0.0000000000000000e+00  1.1116910011637364e+00 1.2438752715074144e-01 0.0000000000000000e+00  9.3933623301878220e-07 -3.4843119142516362e-08 0.0000000000000000e+00  1.8239740544694032e+00 7.8443106221454284e-02 0.0000000000000000e+00  1.0427165622020844e+00 -2.5315689890033737e-03 0.0000000000000000e+00  1.7911460612908077e+00 -1.1620000027486750e-01 0.0000000000000000e+00  1.3762728228040813e-06 -1.7982746506744318e-08 0.0000000000000000e+00  1.7980806175083968e+00 -1.4118272269589571e-01 0.0000000000000000e+00  -7.3320048169064756e-07 4.0547565621974281e-07 0.0000000000000000e+00  1.1190942585908117e+00 -6.1400140702635064e-05 0.0000000000000000e+00  1.6049333276226303e+00 1.3228934899258862e-01 0.0000000000000000e+00  -7.8375877861122764e-07 2.1241447257341600e-07 0.0000000000000000e+00  1.7210410034027068e+00 7.3190149943027416e-02 0.0000000000000000e+00  1.3597311067573428e+00 -3.0233381191530290e-01 0.0000000000000000e+00  1.3399946767296183e+00 -1.2290281605126020e-01 0.0000000000000000e+00  1.3729650193324208e+00 1.2463105982655723e-01 0.0000000000000000e+00  1.1394608439142215e-07 8.8523938033616507e-09 0.0000000000000000e+00  1.4410247522925506e+00 4.4882577044675215e-02 0.0000000000000000e+00  1.0614222415174368e+00 8.0683860900758776e-03 0.0000000000000000e+00  -1.8322010862433017e-06 -1.5944124942952753e-07 0.0000000000000000e+00  1.1012257922393849e+00 -3.5327248810610119e-02 0.0000000000000000e+00  8.5687560454672074e-01 6.2804415972682229e-02 0.0000000000000000e+00  1.0895797981528330e+00 3.7125786939681317e-04 0.0000000000000000e+00  1.0209276966241314e+00 -5.0507529272855956e-02 0.0000000000000000e+00  1.0375302629352923e+00 -2.2002409063344580e-03 0.0000000000000000e+00  1.9200536026156780e+00 1.8468413554964797e-01 0.0000000000000000e+00  1.3946897582912412e+00 -1.3640443549987789e-03 0.0000000000000000e+00  8.9660247070758579e-07 3.0085281241403350e-07 0.0000000000000000e+00  1.6789882444041949e-06 -2.6207273814318117e-07 0.0000000000000000e+00  -7.9180180388755973e-07 -5.6381048837650094e-08 0.0000000000000000e+00  6.5625204037956431e-01 2.0535342542633964e-08 0.0000000000000000e+00  -1.2823150733506123e-06 1.9228126915829293e-07 0.0000000000000000e+00  9.8894605009325420e-01 -6.1966402905473091e-03 0.0000000000000000e+00  1.6203819094411287e+00 1.2216991566716745e-01 0.0000000000000000e+00  1.3078795151021876e+00 -6.1139317636271714e-02 0.0000000000000000e+00  1.3664660846279400e-07 -5.8004599920507139e-07 0.0000000000000000e+00  2.3960377996065442e-07 -2.9083051069191619e-07 0.0000000000000000e+00  -3.6972121832447584e-06 -2.2943758359844393e-07 0.0000000000000000e+00  -2.4924534549565545e-06 4.6776818315706673e-08 0.0000000000000000e+00  1.4436670930083621e-06 6.7494167352655529e-08 0.0000000000000000e+00  -1.1592255449650091e-06 -1.9757535074869048e-08 0.0000000000000000e+00  -1.6318556543032487e-06 -2.0148193297933547e-07 0.0000000000000000e+00  -2.3186157704790348e-06 1.4218547693353325e-07 0.0000000000000000e+00  2.0272049188703036e-07 -2.9735906859484357e-09 0.0000000000000000e+00  3.4285691086058579e-07 2.3427176131068894e-08 0.0000000000000000e+00  1.1735760453141835e-06 -8.7775613058245986e-08 0.0000000000000000e+00  -8.2917689201714698e-07 1.4468521535135966e-07 0.0000000000000000e+00  1.1118349990705821e-07 2.1789104279957350e-07 0.0000000000000000e+00  -3.2995010427960285e-06 -4.4234832192418731e-07 0.0000000000000000e+00  -2.9166403237696514e-06 -2.2936597629889671e-07 0.0000000000000000e+00  -2.7245760731903334e-06 3.0978601405002854e-07 0.0000000000000000e+00  -1.5483221901916669e-06 4.2364914389127393e-07 0.0000000000000000e+00  -5.3185153930055534e-06 -2.5175662357607998e-07 0.0000000000000000e+00  7.2336401074210865e-01 -4.0555998564728073e-02 0.0000000000000000e+00  8.5285696126793709e-01 1.9185425160745923e-02 0.0000000000000000e+00  8.7381730680920522e-01 -6.5564739641690165e-03 0.0000000000000000e+00  9.0663261226890535e-01 1.1491494701663805e-02 0.0000000000000000e+00  1.6565978168934090e+00 -7.1424321317951886e-02 0.0000000000000000e+00  8.1131128307679549e-03 -2.0211726949130284e-02 0.0000000000000000e+00  3.5142360057129667e-02 -4.0023721747460675e-02 0.0000000000000000e+00  1.2560469766527476e+00 5.1772818290143720e-02 0.0000000000000000e+00  1.0305228208889785e+00 -2.8892884494951029e-03 0.0000000000000000e+00  1.2213971284845804e+00 1.2504859344137394e-02 0.0000000000000000e+00  1.3587673178135220e+00 -6.1936685174762987e-02 0.0000000000000000e+00  8.3164204730465729e-01 1.2696209917169484e-02 0.0000000000000000e+00  1.1542280243460739e+00 -3.0190547582006299e-02 0.0000000000000000e+00  1.1420922350217282e+00 1.1822680330299387e-01 0.0000000000000000e+00  1.2969416556277547e+00 2.4096700490249125e-02 0.0000000000000000e+00  1.3401202897072633e+00 6.0169562689574199e-02 0.0000000000000000e+00  8.7779670801468945e-01 -7.8841723396329329e-03 0.0000000000000000e+00  9.7100467201679752e-01 -5.1674371546312188e-03 0.0000000000000000e+00  8.7306836117665132e-01 -2.1736562569694699e-02 0.0000000000000000e+00  7.9324544397871855e-01 9.5235420514612201e-03 0.0000000000000000e+00  2.3089146054082543e-01 5.0730621654043143e-02 0.0000000000000000e+00  1.2299481206953387e+00 -7.4082717713630841e-02 0.0000000000000000e+00  9.7746963435386758e-01 -8.2987293865446107e-02 0.0000000000000000e+00  1.0967393880710636e+00 -1.0546134099175583e-01 0.0000000000000000e+00  1.5481071606506820e+00 -1.5928852430868540e-01 0.0000000000000000e+00  1.2191901504603531e+00 -2.9221902433404852e-03 0.0000000000000000e+00  1.5344952190176462e+00 -2.5935285060284793e-02 0.0000000000000000e+00  1.4843599220328103e+00 3.2400587143288966e-02 0.0000000000000000e+00  1.4412332997216308e+00 -6.8004967407744754e-02 0.0000000000000000e+00  1.4262190176252054e+00 -1.0484615825719318e-01 0.0000000000000000e+00  1.4782917097657831e+00 -1.0175392739636940e-01 0.0000000000000000e+00  1.0507089142374415e+00 -9.9508164311368302e-02 0.0000000000000000e+00  8.0611005618156872e-02 -5.5422079546873469e-02 0.0000000000000000e+00  2.8379917422822665e-01 2.7044082215565535e-02 0.0000000000000000e+00  1.3240872465223412e+00 6.2158468359365927e-02 0.0000000000000000e+00  9.7065094551661601e-01 -5.1585102472254899e-03 0.0000000000000000e+00  1.3025635015402584e+00 6.3126902309414284e-02 0.0000000000000000e+00  1.4783418263348769e+00 -3.4690927333022065e-02 0.0000000000000000e+00  7.8688677862780521e-01 1.7884591219318742e-02 0.0000000000000000e+00  9.1481517043214144e-01 1.3405733238749740e-02 0.0000000000000000e+00  1.3464603308483880e+00 -5.1771314762436103e-03 0.0000000000000000e+00  1.0175828647349381e+00 4.4985857644227620e-02 0.0000000000000000e+00  9.1434401683186473e-01 9.9146534975885128e-03 0.0000000000000000e+00  6.5624905994799809e-01 8.9953925763273901e-08 0.0000000000000000e+00  1.0756281576326046e+00 4.9332567080624168e-02 0.0000000000000000e+00  1.5671120984235676e+00 3.7744991018133070e-02 0.0000000000000000e+00  1.5624024180790776e+00 -3.3360840021986707e-02 0.0000000000000000e+00  1.0546930914068104e+00 1.3476446298364705e-01 0.0000000000000000e+00  1.0681373684390492e+00 7.3341701298419076e-02 0.0000000000000000e+00  7.3524174412095444e-01 -3.2088694648645718e-03 0.0000000000000000e+00  7.9665723842162783e-01 8.3245510337833381e-02 0.0000000000000000e+00  1.4772086037735654e+00 -1.2991040882510012e-02 0.0000000000000000e+00  1.6594336250245918e+00 1.7621570874829132e-01 0.0000000000000000e+00  1.1710975235457763e+00 5.3223143538818360e-03 0.0000000000000000e+00  1.4168947310849689e+00 2.1173321033456281e-02 0.0000000000000000e+00  1.6076731269106501e+00 -1.6799137416788065e-02 0.0000000000000000e+00  1.5065207958000870e+00 -1.4211391074833057e-01 0.0000000000000000e+00  1.1405592278111105e+00 -1.2230916167101445e-01 0.0000000000000000e+00  1.3549918071931828e+00 -1.8072588341778672e-02 0.0000000000000000e+00  1.1928901138421937e+00 -7.3962663668458634e-02 0.0000000000000000e+00  7.9120565966602119e-01 -4.8378497332579621e-03 0.0000000000000000e+00  1.5981001448737822e+00 6.0461654092466177e-02 0.0000000000000000e+00  9.4149248421520138e-01 9.3600051990336941e-02 0.0000000000000000e+00  1.4543286909779121e+00 3.9214435749345286e-02 0.0000000000000000e+00  1.2233425212580566e+00 1.6043719576058704e-01 0.0000000000000000e+00  8.5707894007858276e-01 -1.2493085135512174e-02 0.0000000000000000e+00  1.1905364940013279e+00 -1.1302291306962911e-02 0.0000000000000000e+00  1.3609027281276762e+00 9.6739249207883973e-02 0.0000000000000000e+00  1.4752129284060089e+00 1.1219903138911622e-02 0.0000000000000000e+00  1.2032552989927239e+00 -3.1251084528958424e-02 0.0000000000000000e+00  1.5303514458778587e+00 -3.8694480725780550e-02 0.0000000000000000e+00  1.1911873906071260e+00 7.5774094085525337e-02 0.0000000000000000e+00  1.4713129934025495e+00 9.5789870487824518e-04 0.0000000000000000e+00  6.6968029531725959e-01 -5.7989306101186907e-03 0.0000000000000000e+00  6.3595402338930995e-01 -2.7487751642396151e-03 0.0000000000000000e+00  7.3445478391020325e-01 1.1416400450639554e-02 0.0000000000000000e+00  8.2040591066870883e-01 6.4363356577349599e-03 0.0000000000000000e+00  1.3251178826028154e+00 1.9672305911244128e-04 0.0000000000000000e+00  7.5754114648366688e-01 -9.1687512170893007e-03 0.0000000000000000e+00  1.1616633203358093e+00 -8.9259439846242850e-02 0.0000000000000000e+00  1.2724289000145717e+00 9.1076094770925747e-03 0.0000000000000000e+00  7.9770905350308541e-01 5.0936044537183665e-02 0.0000000000000000e+00  8.1448623617699134e-01 4.1718997071133121e-02 0.0000000000000000e+00  1.1471354083165217e+00 4.3334377621747133e-02 0.0000000000000000e+00  1.2541891091394028e+00 -7.4363240757783240e-03 0.0000000000000000e+00  5.4976496277469189e-01 1.3672553124340098e-03 0.0000000000000000e+00  1.3701922493584444e+00 -1.1872355821778676e-02 0.0000000000000000e+00  7.5588617153787319e-01 -5.5916694645582908e-03 0.0000000000000000e+00  7.8615672552276450e-01 -4.8586478812293757e-03 0.0000000000000000e+00  7.3881829120624076e-01 -7.9191020029559175e-02 0.0000000000000000e+00  1.1943129451776886e+00 -5.7597851802938603e-02 0.0000000000000000e+00  6.5739863105501317e-01 9.3315931563370171e-03 0.0000000000000000e+00  1.5248483071028380e+00 3.8342090105056688e-02 0.0000000000000000e+00  1.5282776802266025e+00 4.7601380036870672e-01 0.0000000000000000e+00  1.0045616685424397e+00 1.8215050365793492e-01 0.0000000000000000e+00  8.1870322146929464e-01 2.2386801834664411e-03 0.0000000000000000e+00  1.3190574375800230e+00 -1.2559580546148075e-01 0.0000000000000000e+00  1.4490196796857975e+00 -5.4619726493782339e-01 0.0000000000000000e+00  7.0385543937783956e-01 2.6300096380293281e-03 0.0000000000000000e+00  8.2728902178691244e-01 8.3867645679902465e-03 0.0000000000000000e+00  1.5246785666704319e+00 -3.1309277310550131e-02 0.0000000000000000e+00  3.9748510127243020e-01 7.9040042114914014e-02 0.0000000000000000e+00  1.4062540144249660e+00 1.5295430570130008e-07 0.0000000000000000e+00  1.3304385239898480e+00 -1.2321552500443747e-02 0.0000000000000000e+00  8.0200545127953282e-01 2.8979590379923747e-03 0.0000000000000000e+00  1.4062506027699186e+00 6.7130909043784571e-08 0.0000000000000000e+00  7.7221592462487465e-01 6.4366410565092850e-03 0.0000000000000000e+00  1.8374342486079684e+00 -3.2980925750823986e-01 0.0000000000000000e+00  1.4214637102096399e+00 1.0778033159159600e-02 0.0000000000000000e+00  7.1440457570914229e-01 9.8546444700360586e-02 0.0000000000000000e+00  1.3505460053568998e+00 -7.1230822841770652e-02 0.0000000000000000e+00  6.8540020526762169e-01 1.0363562008747903e-03 0.0000000000000000e+00  5.0875604604325442e-01 -1.6876013535651949e-03 0.0000000000000000e+00  1.4426230479317810e+00 2.7970411805376384e-02 0.0000000000000000e+00  4.8294353669571133e-01 -7.5628686096804202e-03 0.0000000000000000e+00  6.6123051654332876e-01 -2.0571105647097972e-04 0.0000000000000000e+00  1.3081336734740183e+00 -4.