<?xml version="1.0"?>
<VTKFile type="UnstructuredGrid"  version="0.1"  >
<UnstructuredGrid>
<Piece  NumberOfPoints="2426" NumberOfCells="4534">
<Points>
<DataArray  type="Float64"  NumberOfComponents="3"  format="ascii">0 0.41 0  0 0 0  2.2 0 0  2.2 0.41 0  0.2404508497187474 0.2293892626146237 0  0.25 0.2 0  0.2404508497187474 0.1706107373853764 0  0.2154508497187474 0.1524471741852423 0  0.1845491502812526 0.1524471741852423 0  0.1595491502812526 0.1706107373853764 0  0.15 0.2 0  0.1595491502812526 0.2293892626146237 0  0.1845491502812527 0.2475528258147577 0  0.2154508497187474 0.2475528258147577 0  0.5404508497187474 0.2293892626146237 0  0.55 0.2 0  0.5404508497187474 0.1706107373853764 0  0.5154508497187473 0.1524471741852423 0  0.4845491502812526 0.1524471741852423 0  0.4595491502812526 0.1706107373853764 0  0.45 0.2 0  0.4595491502812526 0.2293892626146237 0  0.4845491502812526 0.2475528258147577 0  0.5154508497187473 0.2475528258147577 0  1.1 0 0  0 0.205 0  1.1 0.41 0  0.55 0 0  0.55 0.41 0  0.275 0 0  0.275 0.41 0  1.65 0.41 0  1.65 0 0  1.375 0 0  1.375 0.41 0  1.925 0 0  1.925 0.41 0  0.8250000000000001 0.41 0  0.8250000000000001 0 0  1.5125 0.205 0  1.7875 0.205 0  0.9625000000000001 0.205 0  1.2375 0.205 0  2.2 0.205 0  0.7560964076246335 0.2151713709677419 0  1.99375 0.2152743902439024 0  2.0625 0 0  0.6875 0 0  2.0625 0.41 0  2.2 0.3075 0  0.6875 0.41 0  1.7875 0.41 0  1.375 0.1486128048780488 0  1.5125 0 0  1.7875 0 0  1.5125 0.41 0  0.9625000000000001 0 0  0.9625000000000001 0.41 0  0.4125 0 0  0.1375 0 0  0.1375 0.41 0  0.4125 0.41 0  1.2375 0 0  1.1 0.1486128048780487 0  1.2375 0.41 0  1.65 0.1486128048780487 0  1.126715909090909 0.2793064024390244 0  1.676715909090909 0.2793064024390244 0  1.348284090909091 0.2793064024390244 0  0.34375 0.3032389320646208 0  1.894702181800738 0.1282910975492754 0  2.092797818199262 0.1282910975492754 0  1.85625 0.3075 0  0.8630851210521902 0.286932093388664 0  0.89375 0.1025 0  0.35 0.1090282786671641 0  0 0.3075 0  0 0.1025 0  0.6526217841291382 0.288229645480046 0  0.7562500000000001 0.09660248895515888 0  0.6568633732316684 0.1557582854763441 0  2.099172119769978 0.25625 0  1.002356446954348 0.1010393851523063 0  1.99375 0.08395950269330846 0  1.459960956013612 0.3075 0  1.569025960719943 0.2986889805672169 0  1.03125 0.3278689922742084 0  0.75625 0.3247156761655783 0  1.959375 0.3126371951219512 0  1.749222215368287 0.1025 0  1.275777784631713 0.1025 0  2.2 0.1025 0  1.225938124459196 0.3075 0  1.550777784631713 0.1025 0  1.44375 0.07430640243902442 0  1.16875 0.07430640243902437 0  0.3528655045338512 0.2063263890916129 0  0.5890337614812103 0.08775733857679162 0  0.8504912436891263 0.190072835691683 0  1.899250267340833 0.2229966846119207 0  0.1020898364287272 0.3140258291809757 0  1.766482954545455 0.2934032012195123 0  1.051658316544432 0.2265720188842194 0  0.2 0.3400647632937836 0  1.421109702350723 0.2261157654379721 0  0.4812500000000001 0.41 0  0.4324401666997539 0.3216425986889796 0  0.098916018031319 0.09171660955420841 0  0.9508742791313441 0.2921736960864468 0  2.13125 0 0  2.118919042110979 0.3422084711244843 0  1.30625 0.41 0  0.20625 0 0  1.597888256393107 0.2173787389261347 0  0.4812500000000001 0 0  0.4324082967851086 0.08384041677422771 0  1.829299675393195 0.07400700849299596 0  0.568219932524165 0.3212274660843853 0  1.71875 0.41 0  0.268005226542646 0.08512186835670006 0  1.16875 0.41 0  2.038220665644273 0.332420740103091 0  0.6678017527842831 0.07701763866051195 0  0.89375 0.41 0  0.5111435174287687 0.07335351331957608 0  0.176193934632343 0.0734896648625108 0  0.07390688010811153 0.1697064032433452 0  0.05452951551825875 0.25625 0  0.61875 0.41 0  1.452769549894695 0.1548122580621249 0  1.369219062229598 0.07430640243902442 0  1.30625 0 0  1.720943423819132 0.1714577452753128 0  1.157188124459196 0.205 0  1.094219062229598 0.07430640243902437 0  1.304056576180868 0.1714577452753128 0  1.67579304192913 0.07430640243902437 0  0.2672907219039591 0.3037570723459566 0  1.209670467133757 0.1362100266964769 0  1.58125 0 0  1.03125 0 0  0.06875000000000001 0.41 0  0 0.35875 0  1.58125 0.41 0  1.631724228912893 0.3381867502687533 0  0.8240147050827157 0.1225233169495944 0  1.825608881788174 0.14499488549201 0  1.85625 0 0  1.44375 0 0  1.44375 0.41 0  1.85625 0.41 0  2.13125 0.41 0  0.7562500000000001 0.41 0  0.7562500000000001 0 0  0.89375 0 0  0.34375 0 0  0.34375 0.41 0  0.20625 0.41 0  0.06875000000000001 0 0  1.16875 0 0  1.03125 0.41 0  0.61875 0 0  1.71875 0 0  1.99375 0 0  1.99375 0.41 0  0.3972301426712326 0.2593842555611471 0  1.340625 0.3489494290853124 0  1.134375 0.3489494290853123 0  1.700180620188976 0.3438659752031281 0  0.5003922072260507 0.341765274319271 0  0.6212513815748759 0.2209216137134851 0  0.6885607720119526 0.215393731583638 0  1.033412357328477 0.1612902025713047 0  2.135782184673599 0.07126652247502523 0  1.668441847249787 0.2129203728327609 0  1.295782514339747 0.2378437748815763 0  1.409375 0.3520314716057996 0  2.129248544730567 0.1906135162504124 0  2.060771381434487 0.1989445750470348 0  2.013252586573865 0.1496169464686054 0  1.942766402200229 0.1734448904596831 0  1.895522487186454 0.06076163953489683 0  2.069553871656643 0.06605731020975725 0  0.9281250000000001 0.3539050257418612 0  1.274680914880868 0.3520219391081363 0  0.3030138498135347 0.2488370856812789 0  0.8223773249563684 0.341761430177996 0  0.9018164060227267 0.2326477848736739 0  0.8143027982392851 0.2440265179987191 0  0.7225087161029304 0.2699907246386231 0  1.614713220494657 0.09473434380863296 0  0.378125 0.3566194660323104 0  0.309375 0.3566194660323104 0  1.72990325744076 0.2380068107952482 0  0.6915936999299305 0.3429472631234433 0  0.6268087624932918 0.3466455500035671 0  1.356580098625191 0.2120393231351682 0  0.3060160055995138 0.1590148921620778 0  0.3954648733249218 0.156380553890791 0  2.034370752044885 0.2668681600792073 0  1.51768709249349 0.3426260931494756 0  1.561883724969884 0.1650446847858835 0  1.197344062229598 0.2523725417393646 0  0.9281250000000001 0.05124999999999999 0  1.804085235518364 0.3468178408964637 0  1.817887819205233 0.2589243285818559 0  0.9107805776841645 0.1653834539923287 0  1.905897727272727 0.3485060975609756 0  0 0.05125 0  0.844212276491354 0.0614201194265309 0  0.378125 0.05244637078450034 0  1.008571329007178 0.2705955969954818 0  0.7724048032149464 0.1559079561351474 0  0.7203054377831548 0.04941826955193545 0  1.192836486056382 0.3562350748565544 0  0.5967108020713719 0.1479294686523888 0  1.28257088594801 0.2944411014911587 0  0.7041890234548132 0.1222025174424443 0  1.474860187679412 0.2504218616229368 0  1.406767003493824 0.2829282258560709 0  0.3201325899091991 0.05890121548989159 0  0.5979220912872258 0.2727591995766724 0  1.845656689180403 0.1998310418452388 0  2.144958525570388 0.2909790873294231 0  2.2 0.15375 0  1.57794966442982 0.3540357145964566 0  0.9483181579620558 0.1214693369582054 0  0.0496154796471391 0.333125 0  1.508991196088596 0.1421783375065625 0  0.09776612425612034 0.2204896805326566 0  1.50436820029908 0.06143401634903343 0  1.223857000523521 0.0823554862453532 0  0.2531953886959507 0.3582003209055908 0  1.153316824384777 0.1289850171317837 0  2.148922302309752 0.1258841779285271 0  1.621993280276081 0.2841214267927899 0  1.550118654119087 0.2461998729100966 0  1.327182649291491 0.1216967252533594 0  1.753125 0.04556020050186112 0  1.271875 0.04556020050186116 0  0.9824282234771738 0.05051969257615314 0  1.039510847866381 0.05683351822678641 0  1.94956388244759 0.1180512551534177 0  1.949997712993411 0.04965831614304109 0  1.771961817615021 0.1530278789497521 0  1.909246823951428 0.2812757146784527 0  1.101974016627944 0.2038045618205013 0  0.7906250000000001 0.0444674049654372 0  1.948575539857022 0.2445328248721197 0  1.697271520964565 0.1233917627620729 0  1.065625 0.3689344961371042 0  1.085849084308977 0.3170853572226867 0  0.9840604787624379 0.3582077516409966 0  1.577403511714593 0.05463601888079143 0  0.05622663515370135 0.05493816910862376 0  0.8762396958822678 0.3392249777398821 0  1.751571320346033 0.3651102912045228 0  1.055327852410105 0.111864799513911 0  0.1583785085108421 0.2994699345738728 0  0.1455283439499995 0.3542795598723423 0  2.2 0.35875 0  0.225705107073232 0.05084786997482401 0  0.1455852234589313 0.1166494778469164 0  1.466879772203159 0.3611261772912453 0  1.990280163552011 0.3564754268533217 0  1.17471064520912 0.2990917256188288 0  0.7221925551074015 0.1739659241003985 0  0 0.25625 0  2.2 0.25625 0  2.2 0.05125 0  0 0.15375 0  1.853978576207987 0.35875 0  0.21965520498276 0.1015543880164422 0  1.515638456102889 0.2882700110184686 0  0.09048297387599738 0.3637717362208066 0  2.150453692751374 0.2387066338105111 0  1.323782677156475 0.04897634338873398 0  1.409375 0.03715320121951221 0  1.406484531114799 0.1087852750766809 0  1.134375 0.03715320121951218 0  1.627401732573545 0.04552157221025036 0  0.446875 0.3713289093361426 0  2.045405893604797 0.1105340662939892 0  1.255408269734577 0.1577307500159216 0  2.028125 0.03707597992059326 0  0.04420832937638274 0.128125 0  0.5817551710628505 0.3702615006034757 0  0.1197849154434487 0.2663398672460083 0  1.248258025468107 0.2565907092181813 0  0.1300647302703173 0.0508462728378621 0  0.7738123537510222 0.2761231499240648 0  1.203125 0.0366132337404304 0  0.5444207041612499 0.111205399508622 0  0.8016457771828226 0.1964238426015905 0  2.072662025974815 0.2975086504196739 0  0.4019040438866802 0.2103993403217561 0  0.4677372330974851 0.04827477407630658 0  0.8677218578847617 0.1432970430140788 0  1.058011122005847 0.2758866204059919 0  0.4429405887974043 0.2746184809910084 0  0.5843750000000001 0.03726989681835222 0  0.6318596133730142 0.1128692182767254 0  0.4862628454464408 0.2957029785303028 0  0.7805186758662764 0.3673578380827891 0  1.887722846421017 0.1760882698830035 0  0.3498893058880703 0.256189258793856 0  1.472640588990488 0.1118278026240017 0  1.865937103925594 0.2604137786483804 0
[...]
<PointData  Vectors="f_37"> 
<DataArray  type="Float64"  Name="f_37"  NumberOfComponents="3" format="ascii">-6.1435502038390783e-07 2.0021393705527478e-08 0.0000000000000000e+00  3.7349608454184156e-07 -3.0463159449933096e-08 0.0000000000000000e+00  -7.6483816132669691e-07 2.2686369421622456e-08 0.0000000000000000e+00  1.0653294562438878e-06 -3.3971352375998117e-08 0.0000000000000000e+00  -9.8511433025441926e-07 6.2579136587791907e-09 0.0000000000000000e+00  -7.7623279916720891e-07 -6.7260558335719438e-10 0.0000000000000000e+00  -1.6526022346698331e-06 2.2663172066951809e-07 0.0000000000000000e+00  1.2175471535309881e-06 2.9583954793073090e-07 0.0000000000000000e+00  2.9426888634911247e-06 -4.8194815095916651e-07 0.0000000000000000e+00  -9.8602666621580909e-07 6.4095229209440228e-08 0.0000000000000000e+00  -1.7511565831339125e-06 1.1287520949817266e-06 0.0000000000000000e+00  6.6569041770967184e-07 2.1818268150931486e-06 0.0000000000000000e+00  -3.8188757885484121e-06 -1.3219987451300604e-06 0.0000000000000000e+00  -3.6013335346975605e-06 -7.9707650515550907e-07 0.0000000000000000e+00  -1.9754818639380288e-06 4.2187284531272510e-07 0.0000000000000000e+00  -1.4028881661080147e-06 1.8953779615976132e-06 0.0000000000000000e+00  -3.8492215353529453e-06 2.8669530178557345e-08 0.0000000000000000e+00  -3.5923454412448657e-06 -2.3247389331919998e-07 0.0000000000000000e+00  -2.8536780877575898e-06 1.0430207899650220e-07 0.0000000000000000e+00  -6.1703249791937869e-07 -1.6206930637982899e-07 0.0000000000000000e+00  -1.1427003873097878e-06 1.9960989958029907e-07 0.0000000000000000e+00  -1.8099637957839998e-06 2.6292487479662080e-07 0.0000000000000000e+00  3.4586748532524291e-07 2.3120557131005966e-07 0.0000000000000000e+00  2.7975913268809890e-07 1.6115372787618708e-07 0.0000000000000000e+00  2.6501309602903315e-06 -1.9138656553827499e-07 0.0000000000000000e+00  1.5000025242205623e+00 1.5872710892469521e-08 0.0000000000000000e+00  -4.3110499492013276e-06 -3.2469115496655971e-07 0.0000000000000000e+00  -2.2294261965253086e-06 -1.1636721535625844e-07 0.0000000000000000e+00  -1.0115944173582383e-06 2.4010389594858318e-08 0.0000000000000000e+00  -2.7094944099343447e-06 9.5492573263433632e-08 0.0000000000000000e+00  -1.0085447084984227e-06 -2.1043854786613597e-08 0.0000000000000000e+00  2.3261576520675987e-06 2.3078898964080160e-07 0.0000000000000000e+00  -1.3420467892138441e-06 7.0235281977742552e-08 0.0000000000000000e+00  1.5664620180309076e-06 -2.6205603864895740e-07 0.0000000000000000e+00  2.3538044423484372e-06 -3.0797627621748511e-07 0.0000000000000000e+00  8.7961508367723819e-07 6.8337545937022882e-08 0.0000000000000000e+00  -1.7207807273114419e-06 -4.0369515540513797e-08 0.0000000000000000e+00  -1.1432993905309518e-07 1.8553384553869042e-07 0.0000000000000000e+00  -2.8983319890773779e-06 1.5457167468687429e-07 0.0000000000000000e+00  1.0387900157308125e+00 1.5406839619823604e-02 0.0000000000000000e+00  1.1375310618602119e+00 -5.6999965906229411e-02 0.0000000000000000e+00  6.2600996859962610e-01 -5.7689026590597346e-02 0.0000000000000000e+00  9.1438245002062057e-01 3.4952965152801933e-02 0.0000000000000000e+00  1.2576203842153375e+00 -7.5576065968096157e-02 0.0000000000000000e+00  2.1684338498130304e-01 -1.7743311608198708e-02 0.0000000000000000e+00  1.1922936706803451e+00 7.4572680613937389e-02 0.0000000000000000e+00  -1.2712103661618446e-06 -4.5020977985693881e-08 0.0000000000000000e+00  -7.9397735974825204e-07 -1.0942803034275643e-07 0.0000000000000000e+00  7.3034797499841741e-07 2.3170661224933801e-07 0.0000000000000000e+00  1.2328793202836010e+00 9.6204019226107263e-03 0.0000000000000000e+00  -1.0237004356747935e-06 6.9460909946641696e-09 0.0000000000000000e+00  -1.2169677149150030e-06 -2.8406710902820866e-07 0.0000000000000000e+00  1.3167135157712657e+00 -3.7439387245277824e-03 0.0000000000000000e+00  3.2187368324010802e-06 -1.4077546432720370e-08 0.0000000000000000e+00  -3.1444708886547162e-07 -1.4967263616077823e-07 0.0000000000000000e+00  -1.7519398228953883e-06 -2.1916341502173368e-08 0.0000000000000000e+00  -3.2348902967089175e-06 2.4833855500435588e-08 0.0000000000000000e+00  1.7250545606212590e-06 5.7866375167323187e-08 0.0000000000000000e+00  -8.7389620541257186e-07 -1.8045489600746287e-08 0.0000000000000000e+00  3.0085524022969352e-07 6.4903683703498898e-08 0.0000000000000000e+00  5.9785751355876155e-07 1.3358891793084930e-07 0.0000000000000000e+00  -2.6149806805264832e-06 1.1496166908361362e-07 0.0000000000000000e+00  -1.6237284553899907e-06 3.5124203937639629e-07 0.0000000000000000e+00  1.4491064283330193e+00 4.9926920958442179e-02 0.0000000000000000e+00  1.7279567316873707e-06 5.1442460618837452e-07 0.0000000000000000e+00  1.2818494608303501e+00 1.0893195615049990e-02 0.0000000000000000e+00  1.5635008735766112e+00 -5.6967365375924089e-03 0.0000000000000000e+00  1.4746428409054031e+00 -2.1029806700047310e-02 0.0000000000000000e+00  1.5231517322777146e+00 -9.8420007358257355e-03 0.0000000000000000e+00  1.9607310850766730e+00 2.8903908705488330e-02 0.0000000000000000e+00  1.3805327872826614e+00 1.9624372743885610e-02 0.0000000000000000e+00  1.2463870086890916e+00 -3.5638027436741225e-04 0.0000000000000000e+00  1.2937918489301532e+00 7.3567967508919212e-03 0.0000000000000000e+00  1.6770476840650337e+00 -1.2053967635911952e-01 0.0000000000000000e+00  1.5551369548749050e+00 6.4484252797734828e-02 0.0000000000000000e+00  1.8641185315366247e+00 8.7568871207069580e-03 0.0000000000000000e+00  1.1249986009461390e+00 -1.7403081067874042e-07 0.0000000000000000e+00  1.1250027068045110e+00 1.4061859776168929e-08 0.0000000000000000e+00  1.7658475136999343e+00 -1.6265127920543027e-01 0.0000000000000000e+00  1.6365478993567815e+00 1.3928401622347375e-01 0.0000000000000000e+00  7.5559358656435260e-01 1.0722542596745446e-01 0.0000000000000000e+00  1.4502888965194602e+00 -4.2637937788417110e-02 0.0000000000000000e+00  1.4997111995475367e+00 4.8063770555878585e-02 0.0000000000000000e+00  1.0986298429568566e+00 -2.0564366375057357e-03 0.0000000000000000e+00  1.3527578293720210e+00 1.5316538073977754e-02 0.0000000000000000e+00  1.4236995298581052e+00 -1.1809191275234516e-02 0.0000000000000000e+00  1.2371518889415141e+00 -4.7414764773938325e-03 0.0000000000000000e+00  1.5554952778058160e+00 -1.2220290194281484e-01 0.0000000000000000e+00  1.2725492635995612e+00 -6.5924985723352343e-03 0.0000000000000000e+00  1.3039080681131594e+00 6.6597044991148031e-03 0.0000000000000000e+00  1.3799149415973195e+00 -8.6696176418400491e-03 0.0000000000000000e+00  1.2501552231132991e+00 -5.4536721111412775e-04 0.0000000000000000e+00  1.4349489101557973e+00 -2.5303618162131187e-02 0.0000000000000000e+00  1.3121516527955701e+00 -8.1037464701650599e-03 0.0000000000000000e+00  1.0442118273090053e+00 2.0845656096507665e-03 0.0000000000000000e+00  1.0725631337470012e+00 -1.3719577758532945e-02 0.0000000000000000e+00  -3.3056650499072421e-01 -1.7152671644559764e-02 0.0000000000000000e+00  1.7801519719761911e+00 1.2446865090194398e-01 0.0000000000000000e+00  3.9306903748053978e-01 3.2055447599024144e-02 0.0000000000000000e+00  1.1609657885165856e+00 1.0727863728754432e-02 0.0000000000000000e+00  1.1818958365097672e+00 2.5550951842669251e-01 0.0000000000000000e+00  1.3722978369197079e+00 1.0916674625872546e-02 0.0000000000000000e+00  9.3814907303699635e-01 -3.5069613793021197e-02 0.0000000000000000e+00  1.3811099738655666e+00 2.1755874170370718e-01 0.0000000000000000e+00  1.1369035728688057e+00 -3.8158001762675475e-02 0.0000000000000000e+00  9.0707128965932843e-07 -1.8688864686287203e-08 0.0000000000000000e+00  1.8376198798992511e+00 -6.1007759220867749e-02 0.0000000000000000e+00  1.1435267513791596e+00 -2.5632130232380512e-01 0.0000000000000000e+00  1.6017288397869243e+00 -6.3608196767726707e-02 0.0000000000000000e+00  -6.8412733478477962e-07 1.0505612103602020e-07 0.0000000000000000e+00  9.3717855131487193e-01 4.7043865481612461e-03 0.0000000000000000e+00  1.4996098600241942e-06 1.6308673930426201e-07 0.0000000000000000e+00  -6.9472174119537150e-06 2.7494666590994980e-07 0.0000000000000000e+00  1.1048944071098767e+00 4.0333709579925658e-02 0.0000000000000000e+00  8.7265307858824613e-07 -3.3863967436776196e-08 0.0000000000000000e+00  1.8274208638097083e+00 7.8363213616277058e-02 0.0000000000000000e+00  1.0125741521700047e+00 9.8036699590788685e-04 0.0000000000000000e+00  1.7919901290428610e+00 -1.1277624539849604e-01 0.0000000000000000e+00  -4.1982183805971858e-07 1.4498742501659889e-09 0.0000000000000000e+00  1.7977941562104882e+00 -1.4152544124113511e-01 0.0000000000000000e+00  -2.7496803447061713e-06 1.0418202483278533e-07 0.0000000000000000e+00  1.0518419410130526e+00 -4.6598535025430187e-03 0.0000000000000000e+00  1.6000118700452790e+00 1.3165290082837036e-01 0.0000000000000000e+00  -1.4739447170405084e-07 2.7208380554561847e-07 0.0000000000000000e+00  1.7229587752935822e+00 7.5791527440419323e-02 0.0000000000000000e+00  1.3595566362750404e+00 -3.0231271219099670e-01 0.0000000000000000e+00  1.3399675551826622e+00 -1.2273204254251356e-01 0.0000000000000000e+00  1.3729864008023611e+00 1.2473536231426156e-01 0.0000000000000000e+00  -3.1230344457172920e-07 -1.4847908371747182e-08 0.0000000000000000e+00  1.3353366482467695e+00 1.2384776002078924e-02 0.0000000000000000e+00  1.0683758067603615e+00 7.0189204331894016e-03 0.0000000000000000e+00  -1.9151196779097089e-06 -1.6496154197215634e-08 0.0000000000000000e+00  1.1421712506384991e+00 -1.7708467335014601e-02 0.0000000000000000e+00  8.4303637880611582e-01 4.9502405919844908e-02 0.0000000000000000e+00  1.0933189302041664e+00 6.6091458688391667e-03 0.0000000000000000e+00  1.0437280189693408e+00 -7.3888330866272349e-05 0.0000000000000000e+00  1.0418715849762665e+00 2.2508363063457136e-04 0.0000000000000000e+00  1.9204378493428922e+00 1.8430572636582679e-01 0.0000000000000000e+00  1.4443245819051744e+00 5.0459400586553614e-03 0.0000000000000000e+00  1.9840230484018101e-06 1.8318378360760438e-07 0.0000000000000000e+00  9.3436263711264288e-07 -2.7038266208603910e-07 0.0000000000000000e+00  -8.0672982479448982e-07 -5.7737557638581651e-08 0.0000000000000000e+00  6.5625203863439674e-01 1.4334577130668891e-08 0.0000000000000000e+00  -8.9053943660866019e-07 1.3807288305229290e-07 0.0000000000000000e+00  9.9790342738071147e-01 -2.3260645320031712e-03 0.0000000000000000e+00  1.6059397982829220e+00 1.1500796916293807e-01 0.0000000000000000e+00  1.3729042023524607e+00 7.7842215958794977e-03 0.0000000000000000e+00  5.7991086451222599e-07 -1.0122765890358353e-07 0.0000000000000000e+00  -1.2000022144672709e-06 -2.9125863220031566e-07 0.0000000000000000e+00  -2.4167069764746146e-06 -2.2263124632112755e-07 0.0000000000000000e+00  -2.7126426639544989e-06 -1.2350075412896913e-07 0.0000000000000000e+00  3.1500995506395115e-07 -1.2970171496808621e-07 0.0000000000000000e+00  -1.2374929129102480e-06 -9.5867480646814252e-09 0.0000000000000000e+00  -1.5231634137013198e-06 -1.6691342470492298e-07 0.0000000000000000e+00  -3.0104657464413409e-06 2.1555234024451542e-07 0.0000000000000000e+00  8.0924899392156928e-08 2.1856345355314322e-09 0.0000000000000000e+00  4.7603518580999751e-07 1.5979839993266131e-08 0.0000000000000000e+00  1.1953302011544065e-06 -8.2258205616709810e-08 0.0000000000000000e+00  -8.1842827186695615e-07 1.4293251818920461e-07 0.0000000000000000e+00  1.6134215871145571e-06 8.5208944578484024e-08 0.0000000000000000e+00  -2.5235415333653095e-06 -4.3992435664548983e-07 0.0000000000000000e+00  -2.4754909377199296e-06 -2.4643112183049321e-07 0.0000000000000000e+00  -3.2857138814441566e-06 -5.5018244589639211e-08 0.0000000000000000e+00  -1.3886077383001085e-06 1.9119818710397007e-08 0.0000000000000000e+00  -3.0913208266163091e-06 1.1607163387348461e-07 0.0000000000000000e+00  7.2504381028275122e-01 -4.5627549288404567e-02 0.0000000000000000e+00  8.4445808083960949e-01 1.1005146278960992e-02 0.0000000000000000e+00  8.8566299059006881e-01 -2.3925910219995501e-03 0.0000000000000000e+00  9.1945318386778907e-01 7.7124011306312756e-03 0.0000000000000000e+00  1.6550615472563219e+00 -6.8927160103844837e-02 0.0000000000000000e+00  -3.5757229603880101e-04 -1.7017000592156002e-02 0.0000000000000000e+00  2.8292508034801257e-02 -2.8262473752400312e-02 0.0000000000000000e+00  1.2416785973207776e+00 3.6781229533369875e-02 0.0000000000000000e+00  9.7805030661969716e-01 -1.4046771276706846e-03 0.0000000000000000e+00  1.1456284551860292e+00 4.5102981097619845e-03 0.0000000000000000e+00  1.3163541295326939e+00 -3.5144334072408856e-02 0.0000000000000000e+00  8.1447086460785667e-01 1.3313593491876051e-02 0.0000000000000000e+00  1.2265099830668755e+00 -4.0934167665206481e-02 0.0000000000000000e+00  1.2023514766107690e+00 3.8860887645292233e-02 0.0000000000000000e+00  1.2778605403076309e+00 3.4118089580133848e-02 0.0000000000000000e+00  1.2856334419120752e+00 4.6291260443238717e-02 0.0000000000000000e+00  8.5352360772308178e-01 -3.7911193368578991e-03 0.0000000000000000e+00  9.1976799480945481e-01 -2.7453707923100770e-04 0.0000000000000000e+00  8.6951869369788293e-01 -2.1759669187444576e-02 0.0000000000000000e+00  7.9803858394518856e-01 3.4216306683298021e-04 0.0000000000000000e+00  2.3251989693715622e-01 5.1595727609977646e-02 0.0000000000000000e+00  1.2291877849151456e+00 -7.6371988813959221e-02 0.0000000000000000e+00  1.0174464175364406e+00 -8.8860045856778591e-02 0.0000000000000000e+00  1.1181131482087592e+00 -1.0525832348553998e-01 0.0000000000000000e+00  1.5495805800808238e+00 -1.5845559355004454e-01 0.0000000000000000e+00  1.2437847458001305e+00 -8.7885474856175122e-03 0.0000000000000000e+00  1.5329309179563297e+00 -2.6538093015053880e-02 0.0000000000000000e+00  1.4839979819601132e+00 3.1822834522518342e-02 0.0000000000000000e+00  1.3306128160925719e+00 -3.3804675821696571e-02 0.0000000000000000e+00  1.4317866254462226e+00 -1.0638706239094353e-01 0.0000000000000000e+00  1.4828868818413075e+00 -1.0129233142926922e-01 0.0000000000000000e+00  1.0511600253294795e+00 -4.7075934003627813e-02 0.0000000000000000e+00  7.9569980359348841e-02 -5.4612398559649881e-02 0.0000000000000000e+00  2.8600734124524219e-01 2.1554527012430064e-02 0.0000000000000000e+00  1.4451685347219085e+00 -1.5857063533178162e-02 0.0000000000000000e+00  9.6045750937969998e-01 -7.1354946382689725e-05 0.0000000000000000e+00  1.2590347070072248e+00 3.3493732010064704e-02 0.0000000000000000e+00  1.3985231233505735e+00 -1.0875447337529258e-02 0.0000000000000000e+00  7.9694015845138721e-01 1.7544412583015208e-02 0.0000000000000000e+00  9.0091798410629809e-01 8.2255100871980943e-03 0.0000000000000000e+00  1.3466770542640394e+00 -7.8270398289567653e-03 0.0000000000000000e+00  9.6731459595758096e-01 3.7333220047280041e-02 0.0000000000000000e+00  8.8347228247173437e-01 -1.3163599882105528e-04 0.0000000000000000e+00  6.5624905472346362e-01 8.4187106511223769e-08 0.0000000000000000e+00  1.0827895425592196e+00 4.6400340667660064e-02 0.0000000000000000e+00  1.5686539174558438e+00 3.7019598386270051e-02 0.0000000000000000e+00  1.5592108488222425e+00 -3.6811998181213980e-02 0.0000000000000000e+00  1.0410955052886832e+00 1.3674528325648763e-01 0.0000000000000000e+00  1.0665684510830267e+00 7.1494766531729065e-02 0.0000000000000000e+00  7.4862714371387951e-01 -4.6005308390224525e-03 0.0000000000000000e+00  8.1203761660827412e-01 8.6356845044444103e-02 0.0000000000000000e+00  1.5087604303296653e+00 -2.4239655038380277e-02 0.0000000000000000e+00  1.6567264746958834e+00 1.7656869943637454e-01 0.0000000000000000e+00  1.3062782015807000e+00 -8.2776993300112700e-04 0.0000000000000000e+00  1.4769871909035830e+00 1.2632998421329887e-02 0.0000000000000000e+00  1.6080149193516153e+00 -1.7541122214739475e-02 0.0000000000000000e+00  1.4935816833382960e+00 -1.3751570643361519e-01 0.0000000000000000e+00  1.1505390245025011e+00 -3.1827296105630162e-02 0.0000000000000000e+00  1.3323712154513003e+00 -9.1862302441466552e-04 0.0000000000000000e+00  1.2595661287685762e+00 -5.8295777098562526e-02 0.0000000000000000e+00  7.9106701727908091e-01 -2.5048134818715781e-03 0.0000000000000000e+00  1.5931024868228338e+00 5.5602352725134224e-02 0.0000000000000000e+00  9.4150729835510427e-01 9.3636444281817860e-02 0.0000000000000000e+00  1.4203773885081568e+00 2.2850318951137476e-02 0.0000000000000000e+00  1.2233775728834768e+00 1.6068913188391443e-01 0.0000000000000000e+00  8.6217148784007414e-01 -7.7128226955607421e-03 0.0000000000000000e+00  1.1817419579266635e+00 -1.6141753717746978e-02 0.0000000000000000e+00  1.3609169708714177e+00 9.6503772816315100e-02 0.0000000000000000e+00  1.5139598070785529e+00 1.9208637815523368e-02 0.0000000000000000e+00  1.2616887850424101e+00 -2.2010605247632712e-02 0.0000000000000000e+00  1.4793287536700390e+00 -1.9947216393398869e-02 0.0000000000000000e+00  1.2695163662187694e+00 1.4411716967110050e-02 0.0000000000000000e+00  1.4427623982759514e+00 1.6596397909049219e-03 0.0000000000000000e+00  6.5824032981507896e-01 2.2526508590734690e-04 0.0000000000000000e+00  6.4012999378932467e-01 -6.1888862204531664e-03 0.0000000000000000e+00  7.4212993127484006e-01 1.3386420740879812e-02 0.0000000000000000e+00  8.2443018879337138e-01 1.1189188535981701e-02 0.0000000000000000e+00  1.3126145439514476e+00 3.9174952666129218e-03 0.0000000000000000e+00  7.1969038612163760e-01 -2.8483934355933113e-03 0.0000000000000000e+00  1.2813405892974785e+00 -1.8119275691564497e-02 0.0000000000000000e+00  1.3676805015222246e+00 7.5873956190718843e-03 0.0000000000000000e+00  7.9438086836161403e-01 1.7781216951053024e-02 0.0000000000000000e+00  8.1891976170171832e-01 3.9710375027634484e-02 0.0000000000000000e+00  1.2492711869337112e+00 3.7852548967089908e-02 0.0000000000000000e+00  1.3534739364303225e+00 -5.8148611303986482e-05 0.0000000000000000e+00  5.5547798635899215e-01 4.8570353619963010e-03 0.0000000000000000e+00  1.3620566441022428e+00 -2.3681026880034753e-03 0.0000000000000000e+00  7.5480342187901195e-01 -3.8944617141451233e-03 0.0000000000000000e+00  7.8046874013911571e-01 -8.0260294194012417e-03 0.0000000000000000e+00  7.3879899885924827e-01 -7.9157310048453097e-02 0.0000000000000000e+00  1.1910026173592978e+00 -5.9042653663618605e-02 0.0000000000000000e+00  6.4834341112906280e-01 6.7167706449270332e-03 0.0000000000000000e+00  1.5455700579691558e+00 4.5104219940884017e-02 0.0000000000000000e+00  1.5284787762342185e+00 4.7610255757222192e-01 0.0000000000000000e+00  1.0046572180012221e+00 1.8217758753029345e-01 0.0000000000000000e+00  7.5414406062734884e-01 3.4692302439356826e-03 0.0000000000000000e+00  1.3189279289936360e+00 -1.2570735813547082e-01 0.0000000000000000e+00  1.4488244311214706e+00 -5.4604522210146977e-01 0.0000000000000000e+00  6.9255726460689615e-01 6.1732809533407377e-03 0.0000000000000000e+00  7.7372380397012375e-01 -1.3282629118709240e-03 0.0000000000000000e+00  1.5181459439917051e+00 -2.0721326952434928e-02 0.0000000000000000e+00  4.0098286610238160e-01 9.0388281838351098e-02 0.0000000000000000e+00  1.4062539953013491e+00 1.2312458679575693e-07 0.0000000000000000e+00  1.3618266574012023e+00 -1.6722578151450812e-02 0.0000000000000000e+00  7.4236217004268457e-01 -9.3146422347886650e-04 0.0000000000000000e+00  1.4062505932278031e+00 3.6132403303821694e-08 0.0000000000000000e+00  7.4930756218619676e-01 3.0305699334038537e-03 0.0000000000000000e+00  1.8371469162117069e+00 -3.2989073463127239e-01 0.0000000000000000e+00  1.4506762982562191e+00 3.6004047791488285e-03 0.0000000000000000e+00  7.1444586821025657e-01 9.8581297754467057e-02 0.0000000000000000e+00  1.3929903491036635e+00 -4.5850382351562920e-02 0.0000000000000000e+00  6.9325747902942225e-01 -3.7489612009180276e-04 0.0000000000000000e+00  5.1251892121402021e-01 4.8445617714182516e-04 0.0000000000000000e+00  1.4199761730631839e+00 1.7114728148980216e-02 0.0000000000000000e+00  4.7820450820318483e-01 -6.2117411291066271e-03 0.0000000000000000e+00  6.5933726879279164e-01 -3.5946380108832759e-03 0.0000000000000000e+00  1.3063753494843524e+00 -4.