<?xml version="1.0"?>
<VTKFile type="UnstructuredGrid"  version="0.1"  >
<UnstructuredGrid>
<Piece  NumberOfPoints="2426" NumberOfCells="4534">
<Points>
<DataArray  type="Float64"  NumberOfComponents="3"  format="ascii">0 0.41 0  0 0 0  2.2 0 0  2.2 0.41 0  0.2404508497187474 0.2293892626146237 0  0.25 0.2 0  0.2404508497187474 0.1706107373853764 0  0.2154508497187474 0.1524471741852423 0  0.1845491502812526 0.1524471741852423 0  0.1595491502812526 0.1706107373853764 0  0.15 0.2 0  0.1595491502812526 0.2293892626146237 0  0.1845491502812527 0.2475528258147577 0  0.2154508497187474 0.2475528258147577 0  0.5404508497187474 0.2293892626146237 0  0.55 0.2 0  0.5404508497187474 0.1706107373853764 0  0.5154508497187473 0.1524471741852423 0  0.4845491502812526 0.1524471741852423 0  0.4595491502812526 0.1706107373853764 0  0.45 0.2 0  0.4595491502812526 0.2293892626146237 0  0.4845491502812526 0.2475528258147577 0  0.5154508497187473 0.2475528258147577 0  1.1 0 0  0 0.205 0  1.1 0.41 0  0.55 0 0  0.55 0.41 0  0.275 0 0  0.275 0.41 0  1.65 0.41 0  1.65 0 0  1.375 0 0  1.375 0.41 0  1.925 0 0  1.925 0.41 0  0.8250000000000001 0.41 0  0.8250000000000001 0 0  1.5125 0.205 0  1.7875 0.205 0  0.9625000000000001 0.205 0  1.2375 0.205 0  2.2 0.205 0  0.7560964076246335 0.2151713709677419 0  1.99375 0.2152743902439024 0  2.0625 0 0  0.6875 0 0  2.0625 0.41 0  2.2 0.3075 0  0.6875 0.41 0  1.7875 0.41 0  1.375 0.1486128048780488 0  1.5125 0 0  1.7875 0 0  1.5125 0.41 0  0.9625000000000001 0 0  0.9625000000000001 0.41 0  0.4125 0 0  0.1375 0 0  0.1375 0.41 0  0.4125 0.41 0  1.2375 0 0  1.1 0.1486128048780487 0  1.2375 0.41 0  1.65 0.1486128048780487 0  1.126715909090909 0.2793064024390244 0  1.676715909090909 0.2793064024390244 0  1.348284090909091 0.2793064024390244 0  0.34375 0.3032389320646208 0  1.894702181800738 0.1282910975492754 0  2.092797818199262 0.1282910975492754 0  1.85625 0.3075 0  0.8630851210521902 0.286932093388664 0  0.89375 0.1025 0  0.35 0.1090282786671641 0  0 0.3075 0  0 0.1025 0  0.6526217841291382 0.288229645480046 0  0.7562500000000001 0.09660248895515888 0  0.6568633732316684 0.1557582854763441 0  2.099172119769978 0.25625 0  1.002356446954348 0.1010393851523063 0  1.99375 0.08395950269330846 0  1.459960956013612 0.3075 0  1.569025960719943 0.2986889805672169 0  1.03125 0.3278689922742084 0  0.75625 0.3247156761655783 0  1.959375 0.3126371951219512 0  1.749222215368287 0.1025 0  1.275777784631713 0.1025 0  2.2 0.1025 0  1.225938124459196 0.3075 0  1.550777784631713 0.1025 0  1.44375 0.07430640243902442 0  1.16875 0.07430640243902437 0  0.3528655045338512 0.2063263890916129 0  0.5890337614812103 0.08775733857679162 0  0.8504912436891263 0.190072835691683 0  1.899250267340833 0.2229966846119207 0  0.1020898364287272 0.3140258291809757 0  1.766482954545455 0.2934032012195123 0  1.051658316544432 0.2265720188842194 0  0.2 0.3400647632937836 0  1.421109702350723 0.2261157654379721 0  0.4812500000000001 0.41 0  0.4324401666997539 0.3216425986889796 0  0.098916018031319 0.09171660955420841 0  0.9508742791313441 0.2921736960864468 0  2.13125 0 0  2.118919042110979 0.3422084711244843 0  1.30625 0.41 0  0.20625 0 0  1.597888256393107 0.2173787389261347 0  0.4812500000000001 0 0  0.4324082967851086 0.08384041677422771 0  1.829299675393195 0.07400700849299596 0  0.568219932524165 0.3212274660843853 0  1.71875 0.41 0  0.268005226542646 0.08512186835670006 0  1.16875 0.41 0  2.038220665644273 0.332420740103091 0  0.6678017527842831 0.07701763866051195 0  0.89375 0.41 0  0.5111435174287687 0.07335351331957608 0  0.176193934632343 0.0734896648625108 0  0.07390688010811153 0.1697064032433452 0  0.05452951551825875 0.25625 0  0.61875 0.41 0  1.452769549894695 0.1548122580621249 0  1.369219062229598 0.07430640243902442 0  1.30625 0 0  1.720943423819132 0.1714577452753128 0  1.157188124459196 0.205 0  1.094219062229598 0.07430640243902437 0  1.304056576180868 0.1714577452753128 0  1.67579304192913 0.07430640243902437 0  0.2672907219039591 0.3037570723459566 0  1.209670467133757 0.1362100266964769 0  1.58125 0 0  1.03125 0 0  0.06875000000000001 0.41 0  0 0.35875 0  1.58125 0.41 0  1.631724228912893 0.3381867502687533 0  0.8240147050827157 0.1225233169495944 0  1.825608881788174 0.14499488549201 0  1.85625 0 0  1.44375 0 0  1.44375 0.41 0  1.85625 0.41 0  2.13125 0.41 0  0.7562500000000001 0.41 0  0.7562500000000001 0 0  0.89375 0 0  0.34375 0 0  0.34375 0.41 0  0.20625 0.41 0  0.06875000000000001 0 0  1.16875 0 0  1.03125 0.41 0  0.61875 0 0  1.71875 0 0  1.99375 0 0  1.99375 0.41 0  0.3972301426712326 0.2593842555611471 0  1.340625 0.3489494290853124 0  1.134375 0.3489494290853123 0  1.700180620188976 0.3438659752031281 0  0.5003922072260507 0.341765274319271 0  0.6212513815748759 0.2209216137134851 0  0.6885607720119526 0.215393731583638 0  1.033412357328477 0.1612902025713047 0  2.135782184673599 0.07126652247502523 0  1.668441847249787 0.2129203728327609 0  1.295782514339747 0.2378437748815763 0  1.409375 0.3520314716057996 0  2.129248544730567 0.1906135162504124 0  2.060771381434487 0.1989445750470348 0  2.013252586573865 0.1496169464686054 0  1.942766402200229 0.1734448904596831 0  1.895522487186454 0.06076163953489683 0  2.069553871656643 0.06605731020975725 0  0.9281250000000001 0.3539050257418612 0  1.274680914880868 0.3520219391081363 0  0.3030138498135347 0.2488370856812789 0  0.8223773249563684 0.341761430177996 0  0.9018164060227267 0.2326477848736739 0  0.8143027982392851 0.2440265179987191 0  0.7225087161029304 0.2699907246386231 0  1.614713220494657 0.09473434380863296 0  0.378125 0.3566194660323104 0  0.309375 0.3566194660323104 0  1.72990325744076 0.2380068107952482 0  0.6915936999299305 0.3429472631234433 0  0.6268087624932918 0.3466455500035671 0  1.356580098625191 0.2120393231351682 0  0.3060160055995138 0.1590148921620778 0  0.3954648733249218 0.156380553890791 0  2.034370752044885 0.2668681600792073 0  1.51768709249349 0.3426260931494756 0  1.561883724969884 0.1650446847858835 0  1.197344062229598 0.2523725417393646 0  0.9281250000000001 0.05124999999999999 0  1.804085235518364 0.3468178408964637 0  1.817887819205233 0.2589243285818559 0  0.9107805776841645 0.1653834539923287 0  1.905897727272727 0.3485060975609756 0  0 0.05125 0  0.844212276491354 0.0614201194265309 0  0.378125 0.05244637078450034 0  1.008571329007178 0.2705955969954818 0  0.7724048032149464 0.1559079561351474 0  0.7203054377831548 0.04941826955193545 0  1.192836486056382 0.3562350748565544 0  0.5967108020713719 0.1479294686523888 0  1.28257088594801 0.2944411014911587 0  0.7041890234548132 0.1222025174424443 0  1.474860187679412 0.2504218616229368 0  1.406767003493824 0.2829282258560709 0  0.3201325899091991 0.05890121548989159 0  0.5979220912872258 0.2727591995766724 0  1.845656689180403 0.1998310418452388 0  2.144958525570388 0.2909790873294231 0  2.2 0.15375 0  1.57794966442982 0.3540357145964566 0  0.9483181579620558 0.1214693369582054 0  0.0496154796471391 0.333125 0  1.508991196088596 0.1421783375065625 0  0.09776612425612034 0.2204896805326566 0  1.50436820029908 0.06143401634903343 0  1.223857000523521 0.0823554862453532 0  0.2531953886959507 0.3582003209055908 0  1.153316824384777 0.1289850171317837 0  2.148922302309752 0.1258841779285271 0  1.621993280276081 0.2841214267927899 0  1.550118654119087 0.2461998729100966 0  1.327182649291491 0.1216967252533594 0  1.753125 0.04556020050186112 0  1.271875 0.04556020050186116 0  0.9824282234771738 0.05051969257615314 0  1.039510847866381 0.05683351822678641 0  1.94956388244759 0.1180512551534177 0  1.949997712993411 0.04965831614304109 0  1.771961817615021 0.1530278789497521 0  1.909246823951428 0.2812757146784527 0  1.101974016627944 0.2038045618205013 0  0.7906250000000001 0.0444674049654372 0  1.948575539857022 0.2445328248721197 0  1.697271520964565 0.1233917627620729 0  1.065625 0.3689344961371042 0  1.085849084308977 0.3170853572226867 0  0.9840604787624379 0.3582077516409966 0  1.577403511714593 0.05463601888079143 0  0.05622663515370135 0.05493816910862376 0  0.8762396958822678 0.3392249777398821 0  1.751571320346033 0.3651102912045228 0  1.055327852410105 0.111864799513911 0  0.1583785085108421 0.2994699345738728 0  0.1455283439499995 0.3542795598723423 0  2.2 0.35875 0  0.225705107073232 0.05084786997482401 0  0.1455852234589313 0.1166494778469164 0  1.466879772203159 0.3611261772912453 0  1.990280163552011 0.3564754268533217 0  1.17471064520912 0.2990917256188288 0  0.7221925551074015 0.1739659241003985 0  0 0.25625 0  2.2 0.25625 0  2.2 0.05125 0  0 0.15375 0  1.853978576207987 0.35875 0  0.21965520498276 0.1015543880164422 0  1.515638456102889 0.2882700110184686 0  0.09048297387599738 0.3637717362208066 0  2.150453692751374 0.2387066338105111 0  1.323782677156475 0.04897634338873398 0  1.409375 0.03715320121951221 0  1.406484531114799 0.1087852750766809 0  1.134375 0.03715320121951218 0  1.627401732573545 0.04552157221025036 0  0.446875 0.3713289093361426 0  2.045405893604797 0.1105340662939892 0  1.255408269734577 0.1577307500159216 0  2.028125 0.03707597992059326 0  0.04420832937638274 0.128125 0  0.5817551710628505 0.3702615006034757 0  0.1197849154434487 0.2663398672460083 0  1.248258025468107 0.2565907092181813 0  0.1300647302703173 0.0508462728378621 0  0.7738123537510222 0.2761231499240648 0  1.203125 0.0366132337404304 0  0.5444207041612499 0.111205399508622 0  0.8016457771828226 0.1964238426015905 0  2.072662025974815 0.2975086504196739 0  0.4019040438866802 0.2103993403217561 0  0.4677372330974851 0.04827477407630658 0  0.8677218578847617 0.1432970430140788 0  1.058011122005847 0.2758866204059919 0  0.4429405887974043 0.2746184809910084 0  0.5843750000000001 0.03726989681835222 0  0.6318596133730142 0.1128692182767254 0  0.4862628454464408 0.2957029785303028 0  0.7805186758662764 0.3673578380827891 0  1.887722846421017 0.1760882698830035 0  0.3498893058880703 0.256189258793856 0  1.472640588990488 0.1118278026240017 0  1.865937103925594 0.2604137786483804 0
[...]
<PointData  Vectors="f_37"> 
<DataArray  type="Float64"  Name="f_37"  NumberOfComponents="3" format="ascii">-6.1427963546585173e-07 2.0064824355462893e-08 0.0000000000000000e+00  3.7338243972606736e-07 -3.0332844186773916e-08 0.0000000000000000e+00  -1.0008129243638198e-06 1.8172480954848412e-08 0.0000000000000000e+00  5.2560192008985736e-07 -4.7676207540100572e-08 0.0000000000000000e+00  -9.8471606927975277e-07 2.5645468049498904e-08 0.0000000000000000e+00  -7.7824204474379749e-07 4.9757215676186454e-08 0.0000000000000000e+00  -1.6553761307113144e-06 2.4821947421674274e-07 0.0000000000000000e+00  1.2245103723820422e-06 2.9127616421735348e-07 0.0000000000000000e+00  2.9244961944589217e-06 -5.0312702668259579e-07 0.0000000000000000e+00  -1.0050228279782176e-06 7.5782054206350455e-08 0.0000000000000000e+00  -1.7538952684291082e-06 1.1505548113530138e-06 0.0000000000000000e+00  6.9613473208647803e-07 2.1844468963868786e-06 0.0000000000000000e+00  -3.7939246684706872e-06 -1.3325931787933025e-06 0.0000000000000000e+00  -3.6084692572647791e-06 -8.0362966322968479e-07 0.0000000000000000e+00  -1.8904040200308408e-06 4.3971608733577468e-07 0.0000000000000000e+00  -1.4011605771155207e-06 1.9680748846321477e-06 0.0000000000000000e+00  -3.9335261849461509e-06 5.3964318562593759e-08 0.0000000000000000e+00  -3.6993222034326755e-06 -2.5894202281803572e-07 0.0000000000000000e+00  -2.9082150488123892e-06 1.1102991087995347e-07 0.0000000000000000e+00  -5.9074013234839610e-07 -2.5706707156250815e-07 0.0000000000000000e+00  -1.1524577143672931e-06 7.1166400797627142e-08 0.0000000000000000e+00  -1.7930937072260023e-06 1.8892097525894069e-07 0.0000000000000000e+00  4.1568059818608745e-07 2.2318486878168207e-07 0.0000000000000000e+00  3.9848223370587057e-07 1.4216010773180525e-07 0.0000000000000000e+00  2.5036581150835531e-06 -5.1775901987838660e-08 0.0000000000000000e+00  1.5000025255239327e+00 2.2730093460366231e-08 0.0000000000000000e+00  -4.3877078244978148e-06 -2.3690672504570052e-07 0.0000000000000000e+00  -2.1755897764016615e-06 -1.1977301479925742e-07 0.0000000000000000e+00  -1.0573093907596822e-06 2.0463158226032999e-08 0.0000000000000000e+00  -2.7090804144998607e-06 9.6040708619315424e-08 0.0000000000000000e+00  -1.0075399368749301e-06 -2.0952907636454888e-08 0.0000000000000000e+00  2.5465494298166204e-06 1.8907421492720326e-07 0.0000000000000000e+00  -1.3081938781842778e-06 4.1525995312357103e-08 0.0000000000000000e+00  2.1501039859649852e-06 -3.1510699170256789e-07 0.0000000000000000e+00  1.5714796641339981e-06 -3.5559013844886536e-07 0.0000000000000000e+00  6.2080381103849300e-07 7.9375802855792557e-08 0.0000000000000000e+00  -1.6306499007937515e-06 -2.6625015859732032e-08 0.0000000000000000e+00  2.5253528295768975e-07 2.1034895411107298e-07 0.0000000000000000e+00  -3.3227893132666632e-06 1.8218481278711214e-07 0.0000000000000000e+00  1.0388300304768945e+00 2.7590476309473370e-02 0.0000000000000000e+00  1.1320956032159795e+00 -5.5740416509165683e-02 0.0000000000000000e+00  6.2097679766554448e-01 -5.7106215933533724e-02 0.0000000000000000e+00  9.2113126941894041e-01 2.2524610029515550e-02 0.0000000000000000e+00  1.2424033769310954e+00 -8.0802363345575889e-02 0.0000000000000000e+00  2.2215679884717154e-01 -1.7859231738848718e-02 0.0000000000000000e+00  1.2013701589662835e+00 7.0990521341926904e-02 0.0000000000000000e+00  -1.2553571685733349e-06 -1.8573646138132026e-08 0.0000000000000000e+00  -7.6084752454204222e-07 -1.0190294801244962e-07 0.0000000000000000e+00  9.4903102005820304e-07 1.7340900404235925e-07 0.0000000000000000e+00  1.2345029673363255e+00 7.6124599634312118e-03 0.0000000000000000e+00  -1.0393058110220355e-06 1.9840173928756899e-08 0.0000000000000000e+00  -1.6650559932352798e-06 -2.6154341579190645e-07 0.0000000000000000e+00  1.3340821965908662e+00 -2.4973126808196505e-04 0.0000000000000000e+00  2.7949234760700244e-06 5.9571536734775873e-08 0.0000000000000000e+00  -4.8187975493986144e-08 -1.7445839941981171e-07 0.0000000000000000e+00  -1.3597523180248394e-06 5.9818468890962157e-08 0.0000000000000000e+00  -2.6894638053071046e-06 -5.9149290666436592e-08 0.0000000000000000e+00  1.2435308936983933e-06 9.0388102509575234e-09 0.0000000000000000e+00  -8.4707663569872167e-07 -1.6939768134802167e-08 0.0000000000000000e+00  2.9768305973518159e-07 6.5084274994694021e-08 0.0000000000000000e+00  6.0182856236934444e-07 1.3377940748219176e-07 0.0000000000000000e+00  -2.6381900799184180e-06 1.1429038067862993e-07 0.0000000000000000e+00  -1.9285978966089799e-06 3.1660210513422484e-07 0.0000000000000000e+00  1.4440064256753475e+00 4.8992962781053556e-02 0.0000000000000000e+00  2.3027468495835218e-06 4.8338998797194531e-07 0.0000000000000000e+00  1.2730022111141548e+00 7.0713390793311279e-03 0.0000000000000000e+00  1.5720633201296992e+00 -1.0927913356429673e-02 0.0000000000000000e+00  1.4686235803813676e+00 -1.8192769428293454e-02 0.0000000000000000e+00  1.5146383154355412e+00 -3.6286185007700662e-03 0.0000000000000000e+00  1.9605712299197662e+00 2.8916479056708407e-02 0.0000000000000000e+00  1.3713194970643015e+00 1.7016167556258212e-02 0.0000000000000000e+00  1.2456907977777238e+00 -7.9872855631899480e-03 0.0000000000000000e+00  1.2985685070571624e+00 5.0682773212969660e-03 0.0000000000000000e+00  1.6735761739443320e+00 -1.2054766671323787e-01 0.0000000000000000e+00  1.5592133747331987e+00 6.6975594934788565e-02 0.0000000000000000e+00  1.8643116433143652e+00 8.7569754513113357e-03 0.0000000000000000e+00  1.1249986009019250e+00 -1.7121302941213191e-07 0.0000000000000000e+00  1.1250027080267864e+00 1.7513092782535513e-08 0.0000000000000000e+00  1.7668251773757970e+00 -1.6225984451382483e-01 0.0000000000000000e+00  1.6358692218329880e+00 1.3751749674040611e-01 0.0000000000000000e+00  7.5537389455570436e-01 1.0926194146979529e-01 0.0000000000000000e+00  1.4435057337516084e+00 -4.1819081276309920e-02 0.0000000000000000e+00  1.4982240185708642e+00 5.0104062162248636e-02 0.0000000000000000e+00  1.0995533800289692e+00 -1.0717760272931697e-03 0.0000000000000000e+00  1.3579499400996140e+00 1.1756824680336914e-02 0.0000000000000000e+00  1.4268697703705255e+00 -1.4984275888119404e-02 0.0000000000000000e+00  1.2409224529689746e+00 -5.2904834795370285e-03 0.0000000000000000e+00  1.5554722015378273e+00 -1.2343647551622372e-01 0.0000000000000000e+00  1.2739473651508126e+00 -9.1356737042874968e-03 0.0000000000000000e+00  1.3071903228875117e+00 8.4221287980620636e-03 0.0000000000000000e+00  1.3850341574679590e+00 -5.0879122697048713e-03 0.0000000000000000e+00  1.2562006733061384e+00 4.1880180856966962e-03 0.0000000000000000e+00  1.4308742620263590e+00 -2.5117187510178877e-02 0.0000000000000000e+00  1.3099602615715014e+00 -1.0126110525354313e-02 0.0000000000000000e+00  1.0411637964804388e+00 -2.6638890209779994e-04 0.0000000000000000e+00  1.0751936263057709e+00 -1.4996060290957645e-02 0.0000000000000000e+00  -3.3054638673762921e-01 -1.7450909621903418e-02 0.0000000000000000e+00  1.7798106037852133e+00 1.2459036844752101e-01 0.0000000000000000e+00  3.9055894197391444e-01 2.2563606087841574e-02 0.0000000000000000e+00  1.1623690954832417e+00 2.7179290035672522e-02 0.0000000000000000e+00  1.1818930511658801e+00 2.5550147856361660e-01 0.0000000000000000e+00  1.3682835676346063e+00 1.3344635722318650e-02 0.0000000000000000e+00  9.2613181983320891e-01 -2.5233249213712873e-02 0.0000000000000000e+00  1.3810929973414738e+00 2.1754403363478875e-01 0.0000000000000000e+00  1.1182972615035560e+00 -3.2838991136960941e-02 0.0000000000000000e+00  8.7453742629243715e-07 -2.0253088594432718e-08 0.0000000000000000e+00  1.8376676561111476e+00 -6.0798552813251971e-02 0.0000000000000000e+00  1.1435295960584131e+00 -2.5632872693219205e-01 0.0000000000000000e+00  1.5981156298947679e+00 -5.9144660895008049e-02 0.0000000000000000e+00  -1.0167158249370257e-06 1.4937375135068167e-07 0.0000000000000000e+00  9.3920048884878771e-01 6.0055072096843951e-03 0.0000000000000000e+00  1.1444455071767807e-06 2.2463415657148639e-08 0.0000000000000000e+00  -6.9488997902549137e-06 2.7523090132134090e-07 0.0000000000000000e+00  1.1160555344072198e+00 3.4908869921724386e-02 0.0000000000000000e+00  9.1003990870505339e-07 -3.5138322272301806e-08 0.0000000000000000e+00  1.8273658313891052e+00 7.8568850106617502e-02 0.0000000000000000e+00  1.0099718298875417e+00 -2.0618532583452958e-04 0.0000000000000000e+00  1.7922805368490011e+00 -1.1274551190691182e-01 0.0000000000000000e+00  -9.0914352455120640e-07 -6.0688502626316770e-08 0.0000000000000000e+00  1.7978313707882312e+00 -1.4155316696816678e-01 0.0000000000000000e+00  -2.0372272973866040e-06 2.1292471096146285e-07 0.0000000000000000e+00  1.0470990849768287e+00 -3.1174925326459915e-03 0.0000000000000000e+00  1.5992483727873710e+00 1.3141925234972848e-01 0.0000000000000000e+00  -5.1656517944083857e-08 2.1638352253322789e-07 0.0000000000000000e+00  1.7227277299807897e+00 7.5838639635010321e-02 0.0000000000000000e+00  1.3595685189577338e+00 -3.0232554844952342e-01 0.0000000000000000e+00  1.3399685162240462e+00 -1.2273979843262793e-01 0.0000000000000000e+00  1.3729858478119201e+00 1.2473111372850171e-01 0.0000000000000000e+00  -3.7256538621092989e-07 -1.4685017924699844e-08 0.0000000000000000e+00  1.3467253655271147e+00 1.8649105685597831e-02 0.0000000000000000e+00  1.0655155365386839e+00 7.4178789373034364e-03 0.0000000000000000e+00  -1.6353054256947412e-06 -1.1398114623131705e-07 0.0000000000000000e+00  1.1483347702151634e+00 -2.7285469730022913e-02 0.0000000000000000e+00  8.4306234738237595e-01 5.2470907807426928e-02 0.0000000000000000e+00  1.0914190560597845e+00 3.3588543475996067e-03 0.0000000000000000e+00  1.0440756936328617e+00 -9.3838846502781147e-03 0.0000000000000000e+00  1.0423011993861162e+00 1.4528695174169093e-03 0.0000000000000000e+00  1.9204024960829684e+00 1.8426258011201785e-01 0.0000000000000000e+00  1.4342370711457149e+00 1.9274006351451280e-03 0.0000000000000000e+00  1.6264874430630869e-06 1.9870814763069241e-07 0.0000000000000000e+00  1.6446037720260124e-06 -2.8834143201703807e-07 0.0000000000000000e+00  -8.0544500082769404e-07 -5.7551854435669740e-08 0.0000000000000000e+00  6.5625203891935502e-01 1.5431885655106328e-08 0.0000000000000000e+00  -2.7660489234858242e-07 1.8413232780263325e-07 0.0000000000000000e+00  9.9476483645254110e-01 -2.8113759048758498e-04 0.0000000000000000e+00  1.6062164559812560e+00 1.1265391169165431e-01 0.0000000000000000e+00  1.3851085888756778e+00 1.5698621685006974e-02 0.0000000000000000e+00  6.5836949824198886e-07 -3.7609321995248727e-08 0.0000000000000000e+00  -9.0265619565626787e-07 -2.3136101347915036e-07 0.0000000000000000e+00  -2.7611561901899730e-06 -2.0441861863794584e-07 0.0000000000000000e+00  -2.7002988450375195e-06 -1.0766713749470404e-07 0.0000000000000000e+00  -2.4385415785020630e-07 -2.2348163323650137e-07 0.0000000000000000e+00  -1.0623613334621217e-06 7.0052856209761627e-09 0.0000000000000000e+00  -1.7449228671018727e-06 -1.3469649872759618e-07 0.0000000000000000e+00  -3.1869270382892329e-06 1.8086452945065733e-07 0.0000000000000000e+00  9.2042168262712138e-08 1.8180009949337905e-09 0.0000000000000000e+00  4.6699975465174410e-07 1.5763145255496831e-08 0.0000000000000000e+00  1.1987559802404212e-06 -8.1983754651063361e-08 0.0000000000000000e+00  -8.1953769814959820e-07 1.4311338838303952e-07 0.0000000000000000e+00  8.5636754052032509e-07 1.5659606965829711e-07 0.0000000000000000e+00  -3.1209765608458411e-06 -4.4736693634215040e-07 0.0000000000000000e+00  -2.3990120611572473e-06 -2.3945737097640086e-07 0.0000000000000000e+00  -3.1263686728372126e-06 -8.5460194537075641e-08 0.0000000000000000e+00  -1.3271877206083747e-06 -5.2131781928326881e-08 0.0000000000000000e+00  -2.6686758907205251e-06 1.7986057933890165e-07 0.0000000000000000e+00  7.2443982869654200e-01 -4.5551998350224353e-02 0.0000000000000000e+00  8.4683044530562424e-01 1.2746245849919517e-02 0.0000000000000000e+00  8.8413303017827061e-01 -4.5986280123401389e-03 0.0000000000000000e+00  9.2074320662166276e-01 9.5452654319259662e-03 0.0000000000000000e+00  1.6552953986505807e+00 -6.8875271516497846e-02 0.0000000000000000e+00  -5.1348649226943893e-04 -1.5416702194187185e-02 0.0000000000000000e+00  2.9952895501427691e-02 -2.4453575855872493e-02 0.0000000000000000e+00  1.2550310790145809e+00 4.4256624666737458e-02 0.0000000000000000e+00  9.7929427870256536e-01 -1.1306697214747009e-03 0.0000000000000000e+00  1.1537354912792923e+00 -8.9752401341996260e-03 0.0000000000000000e+00  1.3197070022783264e+00 -3.9263508006779919e-02 0.0000000000000000e+00  8.1762488368237696e-01 1.2375017408906380e-02 0.0000000000000000e+00  1.2297132683211531e+00 -5.5628901994180718e-02 0.0000000000000000e+00  1.2129880579486461e+00 1.6277334820768718e-02 0.0000000000000000e+00  1.2578251437272823e+00 3.4617694200353544e-02 0.0000000000000000e+00  1.2718024924483691e+00 5.1056148081181495e-02 0.0000000000000000e+00  8.5460730533288154e-01 -4.2941954152673056e-03 0.0000000000000000e+00  9.2044944744355606e-01 -5.3837232301121799e-04 0.0000000000000000e+00  8.7027376027485970e-01 -2.0237686315735630e-02 0.0000000000000000e+00  7.9676265379169442e-01 2.6153629615918205e-03 0.0000000000000000e+00  2.3242843544815903e-01 5.1397902319151555e-02 0.0000000000000000e+00  1.2274230644322417e+00 -7.6484759242053196e-02 0.0000000000000000e+00  1.0129003092005364e+00 -9.2040332456143223e-02 0.0000000000000000e+00  1.1252524576154876e+00 -1.1055960238695203e-01 0.0000000000000000e+00  1.5531801443439597e+00 -1.5932797443067429e-01 0.0000000000000000e+00  1.2467292790472726e+00 -6.9505515553194928e-03 0.0000000000000000e+00  1.5329078018272184e+00 -2.6460841528793314e-02 0.0000000000000000e+00  1.4839448939616531e+00 3.1830139866368491e-02 0.0000000000000000e+00  1.3210082468809576e+00 -3.4873862516380305e-02 0.0000000000000000e+00  1.4321355310913129e+00 -1.0683312298955161e-01 0.0000000000000000e+00  1.4832711262972100e+00 -1.0134862528694870e-01 0.0000000000000000e+00  1.0423353990407489e+00 -5.0893982245853842e-02 0.0000000000000000e+00  7.9708489001120528e-02 -5.4844863458357179e-02 0.0000000000000000e+00  2.8635101562060428e-01 2.1595335231146019e-02 0.0000000000000000e+00  1.4578269447229051e+00 -2.6941946114652473e-02 0.0000000000000000e+00  9.5899653977115029e-01 -1.9393051531343016e-03 0.0000000000000000e+00  1.2444127529707250e+00 3.3708305883770433e-02 0.0000000000000000e+00  1.4171231811650935e+00 -1.8523714789368675e-02 0.0000000000000000e+00  7.9583975915246019e-01 1.9077297944160663e-02 0.0000000000000000e+00  9.0328570826871113e-01 6.9483057509135355e-03 0.0000000000000000e+00  1.3311625311301869e+00 -6.1455052169837720e-03 0.0000000000000000e+00  9.7468676857008318e-01 3.4821292378306834e-02 0.0000000000000000e+00  8.8214190750098120e-01 -8.1197066821576166e-04 0.0000000000000000e+00  6.5624905528754618e-01 8.5057678095332860e-08 0.0000000000000000e+00  1.0846613395653069e+00 4.6880941663068297e-02 0.0000000000000000e+00  1.5686789170322444e+00 3.7099406705621042e-02 0.0000000000000000e+00  1.5543905866133609e+00 -3.2028761653457173e-02 0.0000000000000000e+00  1.0332614653952403e+00 1.3376925844805518e-01 0.0000000000000000e+00  1.0668594514898779e+00 7.0977582025755062e-02 0.0000000000000000e+00  7.4530142238152686e-01 -4.9014528031982125e-03 0.0000000000000000e+00  8.1301976112966157e-01 8.6969999948961471e-02 0.0000000000000000e+00  1.5021464832438627e+00 -1.9895612948227847e-02 0.0000000000000000e+00  1.6541200949112982e+00 1.7603964260619295e-01 0.0000000000000000e+00  1.2987145284305370e+00 2.9230474596101765e-03 0.0000000000000000e+00  1.4728762648616718e+00 1.4972383015310614e-02 0.0000000000000000e+00  1.6080760187417724e+00 -1.7529867749459738e-02 0.0000000000000000e+00  1.4932968769909605e+00 -1.3711485251104349e-01 0.0000000000000000e+00  1.1571292602341503e+00 -1.6157743607169175e-02 0.0000000000000000e+00  1.3237058997117699e+00 4.5797829782596678e-03 0.0000000000000000e+00  1.2843434140978534e+00 -5.1778363340395421e-02 0.0000000000000000e+00  7.8834552875116704e-01 -2.2991831001217154e-03 0.0000000000000000e+00  1.5990488170378501e+00 6.0558715882968059e-02 0.0000000000000000e+00  9.4150686333179001e-01 9.3634621966759035e-02 0.0000000000000000e+00  1.4146306848877757e+00 2.1303602104321240e-02 0.0000000000000000e+00  1.2233765107279826e+00 1.6067594663297674e-01 0.0000000000000000e+00  8.6333422577995800e-01 -9.1273120352157143e-03 0.0000000000000000e+00  1.1858647030521181e+00 -1.4451627032280732e-02 0.0000000000000000e+00  1.3608834485341350e+00 9.6493342811470900e-02 0.0000000000000000e+00  1.5047640594228184e+00 1.3971557214837806e-02 0.0000000000000000e+00  1.2773995186899079e+00 -2.4234576493012198e-02 0.0000000000000000e+00  1.4808102160747503e+00 -2.1697103049382698e-02 0.0000000000000000e+00  1.2827859655079568e+00 1.4436236246913071e-02 0.0000000000000000e+00  1.4512779321434019e+00 5.1407381713862634e-03 0.0000000000000000e+00  6.5722991045714985e-01 1.6165128922048053e-04 0.0000000000000000e+00  6.4013528144605114e-01 -4.6510390584117373e-03 0.0000000000000000e+00  7.3952609908923306e-01 1.4143841575828486e-02 0.0000000000000000e+00  8.2189472959270027e-01 1.0037859805538998e-02 0.0000000000000000e+00  1.3053020001579612e+00 2.9670655668755791e-03 0.0000000000000000e+00  7.2058562651341718e-01 -2.5755800383260885e-03 0.0000000000000000e+00  1.3002881964439466e+00 -1.4657252591418191e-02 0.0000000000000000e+00  1.3769543041384564e+00 8.0567052771128890e-03 0.0000000000000000e+00  7.9423829469205431e-01 2.9677205429643791e-02 0.0000000000000000e+00  8.2035902053751086e-01 3.9303435957754297e-02 0.0000000000000000e+00  1.2652784074545429e+00 4.3012599350471414e-02 0.0000000000000000e+00  1.3595300615873578e+00 5.5187108774524536e-05 0.0000000000000000e+00  5.5660437865956125e-01 3.8573788063699199e-03 0.0000000000000000e+00  1.3666625621887190e+00 -5.7950722719990536e-03 0.0000000000000000e+00  7.5718939971937793e-01 -3.1403910536484413e-03 0.0000000000000000e+00  7.8251319193391555e-01 -7.3738184887027552e-03 0.0000000000000000e+00  7.3879956244037170e-01 -7.9158911096533113e-02 0.0000000000000000e+00  1.1892792219202215e+00 -5.7738666011779002e-02 0.0000000000000000e+00  6.5047358817056589e-01 6.7695685354699844e-03 0.0000000000000000e+00  1.5410561432942742e+00 4.3686261810332201e-02 0.0000000000000000e+00  1.5284719257732799e+00 4.7608732315937369e-01 0.0000000000000000e+00  1.0046492226854036e+00 1.8216975706801472e-01 0.0000000000000000e+00  7.5566960111933501e-01 3.2052551408790031e-03 0.0000000000000000e+00  1.3189516669844983e+00 -1.2571758809042444e-01 0.0000000000000000e+00  1.4488324568560846e+00 -5.4605990530960336e-01 0.0000000000000000e+00  6.9286640234517749e-01 4.6215225869807265e-03 0.0000000000000000e+00  7.7202820352995960e-01 -1.2981357353435898e-03 0.0000000000000000e+00  1.5208837026705095e+00 -2.5399291703622099e-02 0.0000000000000000e+00  3.9616755204079546e-01 9.2112075074728364e-02 0.0000000000000000e+00  1.4062539968745489e+00 1.2880941079198616e-07 0.0000000000000000e+00  1.3429771316765937e+00 -1.8830548542893181e-02 0.0000000000000000e+00  7.4211607517906464e-01 -1.0139298119593368e-03 0.0000000000000000e+00  1.4062505944621424e+00 4.1854036598043057e-08 0.0000000000000000e+00  7.4917024975899038e-01 2.1774268145954559e-03 0.0000000000000000e+00  1.8371606926149178e+00 -3.2991321181951327e-01 0.0000000000000000e+00  1.4578908649562163e+00 -6.6180042543563143e-04 0.0000000000000000e+00  7.1444338352648640e-01 9.8577753378657831e-02 0.0000000000000000e+00  1.3777780424414057e+00 -4.1724828225668968e-02 0.0000000000000000e+00  6.9126982108525370e-01 7.2405637450830441e-04 0.0000000000000000e+00  5.1084581418084429e-01 -6.1803016619821165e-05 0.0000000000000000e+00  1.4207793757811500e+00 1.8026767207457359e-02 0.0000000000000000e+00  4.8002515399216844e-01 -7.2830164869167376e-03 0.0000000000000000e+00  6.5959674986365802e-01 -2.8036215196784418e-03 0.0000000000000000e+00  1.3065399795089434e+00 -4.3