<?xml version="1.0"?>
<VTKFile type="UnstructuredGrid"  version="0.1"  >
<UnstructuredGrid>
<Piece  NumberOfPoints="2426" NumberOfCells="4534">
<Points>
<DataArray  type="Float64"  NumberOfComponents="3"  format="ascii">0 0.41 0  0 0 0  2.2 0 0  2.2 0.41 0  0.2404508497187474 0.2293892626146237 0  0.25 0.2 0  0.2404508497187474 0.1706107373853764 0  0.2154508497187474 0.1524471741852423 0  0.1845491502812526 0.1524471741852423 0  0.1595491502812526 0.1706107373853764 0  0.15 0.2 0  0.1595491502812526 0.2293892626146237 0  0.1845491502812527 0.2475528258147577 0  0.2154508497187474 0.2475528258147577 0  0.5404508497187474 0.2293892626146237 0  0.55 0.2 0  0.5404508497187474 0.1706107373853764 0  0.5154508497187473 0.1524471741852423 0  0.4845491502812526 0.1524471741852423 0  0.4595491502812526 0.1706107373853764 0  0.45 0.2 0  0.4595491502812526 0.2293892626146237 0  0.4845491502812526 0.2475528258147577 0  0.5154508497187473 0.2475528258147577 0  1.1 0 0  0 0.205 0  1.1 0.41 0  0.55 0 0  0.55 0.41 0  0.275 0 0  0.275 0.41 0  1.65 0.41 0  1.65 0 0  1.375 0 0  1.375 0.41 0  1.925 0 0  1.925 0.41 0  0.8250000000000001 0.41 0  0.8250000000000001 0 0  1.5125 0.205 0  1.7875 0.205 0  0.9625000000000001 0.205 0  1.2375 0.205 0  2.2 0.205 0  0.7560964076246335 0.2151713709677419 0  1.99375 0.2152743902439024 0  2.0625 0 0  0.6875 0 0  2.0625 0.41 0  2.2 0.3075 0  0.6875 0.41 0  1.7875 0.41 0  1.375 0.1486128048780488 0  1.5125 0 0  1.7875 0 0  1.5125 0.41 0  0.9625000000000001 0 0  0.9625000000000001 0.41 0  0.4125 0 0  0.1375 0 0  0.1375 0.41 0  0.4125 0.41 0  1.2375 0 0  1.1 0.1486128048780487 0  1.2375 0.41 0  1.65 0.1486128048780487 0  1.126715909090909 0.2793064024390244 0  1.676715909090909 0.2793064024390244 0  1.348284090909091 0.2793064024390244 0  0.34375 0.3032389320646208 0  1.894702181800738 0.1282910975492754 0  2.092797818199262 0.1282910975492754 0  1.85625 0.3075 0  0.8630851210521902 0.286932093388664 0  0.89375 0.1025 0  0.35 0.1090282786671641 0  0 0.3075 0  0 0.1025 0  0.6526217841291382 0.288229645480046 0  0.7562500000000001 0.09660248895515888 0  0.6568633732316684 0.1557582854763441 0  2.099172119769978 0.25625 0  1.002356446954348 0.1010393851523063 0  1.99375 0.08395950269330846 0  1.459960956013612 0.3075 0  1.569025960719943 0.2986889805672169 0  1.03125 0.3278689922742084 0  0.75625 0.3247156761655783 0  1.959375 0.3126371951219512 0  1.749222215368287 0.1025 0  1.275777784631713 0.1025 0  2.2 0.1025 0  1.225938124459196 0.3075 0  1.550777784631713 0.1025 0  1.44375 0.07430640243902442 0  1.16875 0.07430640243902437 0  0.3528655045338512 0.2063263890916129 0  0.5890337614812103 0.08775733857679162 0  0.8504912436891263 0.190072835691683 0  1.899250267340833 0.2229966846119207 0  0.1020898364287272 0.3140258291809757 0  1.766482954545455 0.2934032012195123 0  1.051658316544432 0.2265720188842194 0  0.2 0.3400647632937836 0  1.421109702350723 0.2261157654379721 0  0.4812500000000001 0.41 0  0.4324401666997539 0.3216425986889796 0  0.098916018031319 0.09171660955420841 0  0.9508742791313441 0.2921736960864468 0  2.13125 0 0  2.118919042110979 0.3422084711244843 0  1.30625 0.41 0  0.20625 0 0  1.597888256393107 0.2173787389261347 0  0.4812500000000001 0 0  0.4324082967851086 0.08384041677422771 0  1.829299675393195 0.07400700849299596 0  0.568219932524165 0.3212274660843853 0  1.71875 0.41 0  0.268005226542646 0.08512186835670006 0  1.16875 0.41 0  2.038220665644273 0.332420740103091 0  0.6678017527842831 0.07701763866051195 0  0.89375 0.41 0  0.5111435174287687 0.07335351331957608 0  0.176193934632343 0.0734896648625108 0  0.07390688010811153 0.1697064032433452 0  0.05452951551825875 0.25625 0  0.61875 0.41 0  1.452769549894695 0.1548122580621249 0  1.369219062229598 0.07430640243902442 0  1.30625 0 0  1.720943423819132 0.1714577452753128 0  1.157188124459196 0.205 0  1.094219062229598 0.07430640243902437 0  1.304056576180868 0.1714577452753128 0  1.67579304192913 0.07430640243902437 0  0.2672907219039591 0.3037570723459566 0  1.209670467133757 0.1362100266964769 0  1.58125 0 0  1.03125 0 0  0.06875000000000001 0.41 0  0 0.35875 0  1.58125 0.41 0  1.631724228912893 0.3381867502687533 0  0.8240147050827157 0.1225233169495944 0  1.825608881788174 0.14499488549201 0  1.85625 0 0  1.44375 0 0  1.44375 0.41 0  1.85625 0.41 0  2.13125 0.41 0  0.7562500000000001 0.41 0  0.7562500000000001 0 0  0.89375 0 0  0.34375 0 0  0.34375 0.41 0  0.20625 0.41 0  0.06875000000000001 0 0  1.16875 0 0  1.03125 0.41 0  0.61875 0 0  1.71875 0 0  1.99375 0 0  1.99375 0.41 0  0.3972301426712326 0.2593842555611471 0  1.340625 0.3489494290853124 0  1.134375 0.3489494290853123 0  1.700180620188976 0.3438659752031281 0  0.5003922072260507 0.341765274319271 0  0.6212513815748759 0.2209216137134851 0  0.6885607720119526 0.215393731583638 0  1.033412357328477 0.1612902025713047 0  2.135782184673599 0.07126652247502523 0  1.668441847249787 0.2129203728327609 0  1.295782514339747 0.2378437748815763 0  1.409375 0.3520314716057996 0  2.129248544730567 0.1906135162504124 0  2.060771381434487 0.1989445750470348 0  2.013252586573865 0.1496169464686054 0  1.942766402200229 0.1734448904596831 0  1.895522487186454 0.06076163953489683 0  2.069553871656643 0.06605731020975725 0  0.9281250000000001 0.3539050257418612 0  1.274680914880868 0.3520219391081363 0  0.3030138498135347 0.2488370856812789 0  0.8223773249563684 0.341761430177996 0  0.9018164060227267 0.2326477848736739 0  0.8143027982392851 0.2440265179987191 0  0.7225087161029304 0.2699907246386231 0  1.614713220494657 0.09473434380863296 0  0.378125 0.3566194660323104 0  0.309375 0.3566194660323104 0  1.72990325744076 0.2380068107952482 0  0.6915936999299305 0.3429472631234433 0  0.6268087624932918 0.3466455500035671 0  1.356580098625191 0.2120393231351682 0  0.3060160055995138 0.1590148921620778 0  0.3954648733249218 0.156380553890791 0  2.034370752044885 0.2668681600792073 0  1.51768709249349 0.3426260931494756 0  1.561883724969884 0.1650446847858835 0  1.197344062229598 0.2523725417393646 0  0.9281250000000001 0.05124999999999999 0  1.804085235518364 0.3468178408964637 0  1.817887819205233 0.2589243285818559 0  0.9107805776841645 0.1653834539923287 0  1.905897727272727 0.3485060975609756 0  0 0.05125 0  0.844212276491354 0.0614201194265309 0  0.378125 0.05244637078450034 0  1.008571329007178 0.2705955969954818 0  0.7724048032149464 0.1559079561351474 0  0.7203054377831548 0.04941826955193545 0  1.192836486056382 0.3562350748565544 0  0.5967108020713719 0.1479294686523888 0  1.28257088594801 0.2944411014911587 0  0.7041890234548132 0.1222025174424443 0  1.474860187679412 0.2504218616229368 0  1.406767003493824 0.2829282258560709 0  0.3201325899091991 0.05890121548989159 0  0.5979220912872258 0.2727591995766724 0  1.845656689180403 0.1998310418452388 0  2.144958525570388 0.2909790873294231 0  2.2 0.15375 0  1.57794966442982 0.3540357145964566 0  0.9483181579620558 0.1214693369582054 0  0.0496154796471391 0.333125 0  1.508991196088596 0.1421783375065625 0  0.09776612425612034 0.2204896805326566 0  1.50436820029908 0.06143401634903343 0  1.223857000523521 0.0823554862453532 0  0.2531953886959507 0.3582003209055908 0  1.153316824384777 0.1289850171317837 0  2.148922302309752 0.1258841779285271 0  1.621993280276081 0.2841214267927899 0  1.550118654119087 0.2461998729100966 0  1.327182649291491 0.1216967252533594 0  1.753125 0.04556020050186112 0  1.271875 0.04556020050186116 0  0.9824282234771738 0.05051969257615314 0  1.039510847866381 0.05683351822678641 0  1.94956388244759 0.1180512551534177 0  1.949997712993411 0.04965831614304109 0  1.771961817615021 0.1530278789497521 0  1.909246823951428 0.2812757146784527 0  1.101974016627944 0.2038045618205013 0  0.7906250000000001 0.0444674049654372 0  1.948575539857022 0.2445328248721197 0  1.697271520964565 0.1233917627620729 0  1.065625 0.3689344961371042 0  1.085849084308977 0.3170853572226867 0  0.9840604787624379 0.3582077516409966 0  1.577403511714593 0.05463601888079143 0  0.05622663515370135 0.05493816910862376 0  0.8762396958822678 0.3392249777398821 0  1.751571320346033 0.3651102912045228 0  1.055327852410105 0.111864799513911 0  0.1583785085108421 0.2994699345738728 0  0.1455283439499995 0.3542795598723423 0  2.2 0.35875 0  0.225705107073232 0.05084786997482401 0  0.1455852234589313 0.1166494778469164 0  1.466879772203159 0.3611261772912453 0  1.990280163552011 0.3564754268533217 0  1.17471064520912 0.2990917256188288 0  0.7221925551074015 0.1739659241003985 0  0 0.25625 0  2.2 0.25625 0  2.2 0.05125 0  0 0.15375 0  1.853978576207987 0.35875 0  0.21965520498276 0.1015543880164422 0  1.515638456102889 0.2882700110184686 0  0.09048297387599738 0.3637717362208066 0  2.150453692751374 0.2387066338105111 0  1.323782677156475 0.04897634338873398 0  1.409375 0.03715320121951221 0  1.406484531114799 0.1087852750766809 0  1.134375 0.03715320121951218 0  1.627401732573545 0.04552157221025036 0  0.446875 0.3713289093361426 0  2.045405893604797 0.1105340662939892 0  1.255408269734577 0.1577307500159216 0  2.028125 0.03707597992059326 0  0.04420832937638274 0.128125 0  0.5817551710628505 0.3702615006034757 0  0.1197849154434487 0.2663398672460083 0  1.248258025468107 0.2565907092181813 0  0.1300647302703173 0.0508462728378621 0  0.7738123537510222 0.2761231499240648 0  1.203125 0.0366132337404304 0  0.5444207041612499 0.111205399508622 0  0.8016457771828226 0.1964238426015905 0  2.072662025974815 0.2975086504196739 0  0.4019040438866802 0.2103993403217561 0  0.4677372330974851 0.04827477407630658 0  0.8677218578847617 0.1432970430140788 0  1.058011122005847 0.2758866204059919 0  0.4429405887974043 0.2746184809910084 0  0.5843750000000001 0.03726989681835222 0  0.6318596133730142 0.1128692182767254 0  0.4862628454464408 0.2957029785303028 0  0.7805186758662764 0.3673578380827891 0  1.887722846421017 0.1760882698830035 0  0.3498893058880703 0.256189258793856 0  1.472640588990488 0.1118278026240017 0  1.865937103925594 0.2604137786483804 0
[...]
<PointData  Vectors="f_37"> 
<DataArray  type="Float64"  Name="f_37"  NumberOfComponents="3" format="ascii">-6.0618355149420048e-07 2.1585937174955610e-08 0.0000000000000000e+00  3.6274059410042805e-07 -2.7595876826241019e-08 0.0000000000000000e+00  -4.3558763118412996e-07 1.9016079712229794e-09 0.0000000000000000e+00  1.4361155741528459e-06 1.3898366630709575e-09 0.0000000000000000e+00  -9.5320360748643715e-07 5.2915781857255365e-07 0.0000000000000000e+00  -8.2254879149514393e-07 9.8049170021838896e-07 0.0000000000000000e+00  -1.7702895959381028e-06 7.0140832486898369e-07 0.0000000000000000e+00  1.2171995387364238e-06 2.1148871838851930e-07 0.0000000000000000e+00  2.5804364152232673e-06 -7.4375198795521852e-07 0.0000000000000000e+00  -1.2108183805794668e-06 2.3951357457304521e-07 0.0000000000000000e+00  -1.7394412910759075e-06 1.3347680634271606e-06 0.0000000000000000e+00  1.1794477419323939e-06 2.2796209348719570e-06 0.0000000000000000e+00  -3.3015538335315136e-06 -1.4806814147431407e-06 0.0000000000000000e+00  -3.6184479732920182e-06 -1.0605793769085146e-06 0.0000000000000000e+00  -5.4107222233659144e-07 -1.5057601402094478e-06 0.0000000000000000e+00  -1.3779479385288628e-06 -4.2474731663276119e-06 0.0000000000000000e+00  -5.2687548237802872e-06 -1.1911944287839828e-06 0.0000000000000000e+00  -2.8916627535709469e-06 1.8068041153824328e-07 0.0000000000000000e+00  1.1768212810171693e-07 -1.6753428246499625e-07 0.0000000000000000e+00  -2.8546450048109552e-06 -2.4334051675821158e-06 0.0000000000000000e+00  -1.0721160092011917e-06 -3.4027784333331040e-06 0.0000000000000000e+00  7.4221455415313162e-07 -2.3909701499460093e-06 0.0000000000000000e+00  -1.8981345101976726e-06 -6.3867373572533817e-08 0.0000000000000000e+00  -3.8763336085605575e-07 -1.7990770399838551e-07 0.0000000000000000e+00  -5.9740377170807572e-06 8.8338574969152591e-07 0.0000000000000000e+00  1.5000025503008474e+00 9.7479334539340728e-08 0.0000000000000000e+00  3.5902183550658883e-06 1.1415814641250817e-06 0.0000000000000000e+00  -1.8054991004406914e-06 1.4976485814050702e-08 0.0000000000000000e+00  -1.1908544615470026e-06 1.2214854534193924e-07 0.0000000000000000e+00  -2.5066380839878149e-06 8.7466489017284552e-08 0.0000000000000000e+00  -1.2139580313885480e-06 -3.5410280103502272e-08 0.0000000000000000e+00  -1.8808298081787472e-06 1.3170207606332673e-09 0.0000000000000000e+00  3.9367899284717203e-06 1.2729251376781031e-07 0.0000000000000000e+00  2.1705965145006311e-06 7.3901597193754028e-07 0.0000000000000000e+00  -2.6432709762891029e-06 3.0054266683948631e-07 0.0000000000000000e+00  8.3613078612535834e-07 -3.5918644786578205e-08 0.0000000000000000e+00  -2.0300025562872683e-06 -3.9138763588499067e-08 0.0000000000000000e+00  1.1453414054386360e-06 -1.3555118500443366e-07 0.0000000000000000e+00  -4.3092777080182066e-06 -4.1161148606064878e-07 0.0000000000000000e+00  9.5969499931800273e-01 -7.8054464726590972e-02 0.0000000000000000e+00  1.1262804948059362e+00 -8.5808905586636786e-03 0.0000000000000000e+00  6.2912798040131312e-01 7.9938783794469281e-02 0.0000000000000000e+00  9.2747939992807393e-01 -9.5490417986159482e-02 0.0000000000000000e+00  1.2459503069644611e+00 -4.8648517636384857e-03 0.0000000000000000e+00  2.8465222741245916e-01 -1.0507643900470694e-01 0.0000000000000000e+00  1.2106355046751467e+00 -1.3919003001371690e-02 0.0000000000000000e+00  -2.0550901966412561e-06 8.0605152162491967e-10 0.0000000000000000e+00  -3.3355045368386126e-06 1.0992786121115319e-07 0.0000000000000000e+00  -6.5585996939318496e-07 1.3461866717351487e-08 0.0000000000000000e+00  1.1884808940701859e+00 -1.3701133801324002e-03 0.0000000000000000e+00  1.3877030142890470e-06 2.1136910399829799e-07 0.0000000000000000e+00  7.7796067190836084e-07 -2.0091733139644442e-08 0.0000000000000000e+00  1.3389640601136139e+00 1.5484301535397607e-02 0.0000000000000000e+00  3.3393544852406367e-08 -2.0889869266545811e-07 0.0000000000000000e+00  -2.8948830440300552e-06 1.0896834338800359e-08 0.0000000000000000e+00  3.8425395022908859e-06 -1.7571925278549580e-08 0.0000000000000000e+00  5.4103732223422237e-06 -3.9438885472414784e-07 0.0000000000000000e+00  -6.5773661559543411e-06 -4.1045866423243347e-07 0.0000000000000000e+00  5.9511582187501651e-08 -1.6779384469608153e-08 0.0000000000000000e+00  2.7653776601615780e-07 6.3888230851664745e-08 0.0000000000000000e+00  6.4748260661489081e-07 1.3452119958834302e-07 0.0000000000000000e+00  -3.4082979236593265e-06 8.7227942985670132e-08 0.0000000000000000e+00  3.6564718632297811e-06 -9.3975397500244157e-07 0.0000000000000000e+00  1.2670143433239762e+00 2.4996986422425841e-04 0.0000000000000000e+00  -7.5443370315962579e-07 -9.0325582013355172e-07 0.0000000000000000e+00  1.3363411309442821e+00 5.5621370512732110e-02 0.0000000000000000e+00  1.6376238556663192e+00 -6.9208324365906529e-02 0.0000000000000000e+00  1.3880356898723853e+00 -3.8114925069481219e-04 0.0000000000000000e+00  1.4516658859982725e+00 4.4304688783661873e-02 0.0000000000000000e+00  1.9589252870624456e+00 3.2289158565088592e-02 0.0000000000000000e+00  1.2260722235499077e+00 6.0254411089207928e-03 0.0000000000000000e+00  1.2258102343020194e+00 2.0634917742858843e-03 0.0000000000000000e+00  1.2277615851429147e+00 1.5351025087455353e-02 0.0000000000000000e+00  1.6118958276734443e+00 -7.2437383141751563e-02 0.0000000000000000e+00  1.5772672435752866e+00 1.1650443026858377e-01 0.0000000000000000e+00  1.8686075345423145e+00 1.1240610173776928e-02 0.0000000000000000e+00  1.1249986070121067e+00 -1.4316846016185349e-07 0.0000000000000000e+00  1.1250027630024511e+00 5.6001450200270714e-08 0.0000000000000000e+00  1.7908872421580226e+00 -1.7560354968442413e-01 0.0000000000000000e+00  1.6598290132565885e+00 1.2945525477218445e-01 0.0000000000000000e+00  6.9414924632405339e-01 1.1336169413416443e-01 0.0000000000000000e+00  1.2536179820923758e+00 -1.3078000753608919e-02 0.0000000000000000e+00  1.4314870240785600e+00 1.5599652374351463e-02 0.0000000000000000e+00  1.1217260456007272e+00 2.0920209361056496e-03 0.0000000000000000e+00  1.4032128017092809e+00 -2.4904694911391221e-02 0.0000000000000000e+00  1.3771556523196284e+00 2.1825861041914512e-02 0.0000000000000000e+00  1.2772844071573475e+00 -4.5626973906086152e-02 0.0000000000000000e+00  1.5291367384320207e+00 -1.2589313096633434e-01 0.0000000000000000e+00  1.2063850315025868e+00 -6.5556733115829892e-03 0.0000000000000000e+00  1.2168941675497840e+00 -2.8172251293051526e-02 0.0000000000000000e+00  1.4376752043435284e+00 1.1210487229085771e-02 0.0000000000000000e+00  1.1843289531947945e+00 -1.0830935467323114e-03 0.0000000000000000e+00  1.3824753326532699e+00 4.6180000727957353e-02 0.0000000000000000e+00  1.3733397533928877e+00 4.0775852490224813e-02 0.0000000000000000e+00  1.1231439587482581e+00 -2.7347692335921558e-02 0.0000000000000000e+00  1.1226127170408238e+00 2.2098228461747875e-03 0.0000000000000000e+00  -3.3494994968542408e-01 -1.7244762181114988e-02 0.0000000000000000e+00  1.7711484759932006e+00 1.2053661702309378e-01 0.0000000000000000e+00  4.6353585777342632e-01 -3.7225648532769044e-02 0.0000000000000000e+00  1.2179409568372637e+00 -2.6607607662047238e-02 0.0000000000000000e+00  1.1818100790339885e+00 2.5540361793466232e-01 0.0000000000000000e+00  1.3620502581520082e+00 -2.4343421278014886e-02 0.0000000000000000e+00  9.9182458068541890e-01 3.7381374874014495e-02 0.0000000000000000e+00  1.3809433675660252e+00 2.1769828500889460e-01 0.0000000000000000e+00  1.0440390370478123e+00 4.2884514517835502e-02 0.0000000000000000e+00  2.5318683256481009e-07 4.7029857304615179e-09 0.0000000000000000e+00  1.8446129777232469e+00 -5.7498159395989124e-02 0.0000000000000000e+00  1.1436152915188025e+00 -2.5648733826982673e-01 0.0000000000000000e+00  1.6075787812186710e+00 -2.6053989074990513e-02 0.0000000000000000e+00  -1.0242274691932513e-06 5.6247103946022563e-09 0.0000000000000000e+00  1.0174341552763413e+00 -1.3979486270575812e-03 0.0000000000000000e+00  -7.4223003524918226e-06 -7.6402055477460478e-07 0.0000000000000000e+00  -6.8070878880180551e-06 2.6365584618381720e-07 0.0000000000000000e+00  9.9627859809994379e-01 -1.8641407468187113e-02 0.0000000000000000e+00  1.8449723550048813e-06 -4.0589964597373053e-11 0.0000000000000000e+00  1.8218778794227177e+00 8.2843394771093565e-02 0.0000000000000000e+00  1.0775280078342646e+00 -5.2539735102369821e-04 0.0000000000000000e+00  1.7991686778530289e+00 -1.1918472460763091e-01 0.0000000000000000e+00  -1.9560686643170165e-06 1.7994355454052712e-07 0.0000000000000000e+00  1.7985864469675947e+00 -1.4168015256702537e-01 0.0000000000000000e+00  6.5948969749324363e-06 3.2545640249794952e-07 0.0000000000000000e+00  1.0950822922850698e+00 -4.3167516070159399e-03 0.0000000000000000e+00  1.5985214556182026e+00 1.2135295710943433e-01 0.0000000000000000e+00  -5.6359196267192592e-06 -6.5638195733795922e-07 0.0000000000000000e+00  1.7150461347114550e+00 7.3646507705783751e-02 0.0000000000000000e+00  1.3598292595501131e+00 -3.0249060891735180e-01 0.0000000000000000e+00  1.3399931262246341e+00 -1.2294807743336256e-01 0.0000000000000000e+00  1.3729608707885783e+00 1.2461380962260912e-01 0.0000000000000000e+00  2.6053950310623924e-07 1.1697974507542670e-07 0.0000000000000000e+00  1.1558322648337347e+00 -1.2193006683571483e-02 0.0000000000000000e+00  1.0863844023122580e+00 -4.2965326661767791e-02 0.0000000000000000e+00  6.7073574965375088e-06 -4.0964172125352480e-07 0.0000000000000000e+00  1.1466119783753885e+00 4.7009707277135056e-02 0.0000000000000000e+00  9.3529214990545884e-01 -5.8819739261794013e-02 0.0000000000000000e+00  1.1085213087239236e+00 -2.1975140562526561e-02 0.0000000000000000e+00  1.1483403649636923e+00 3.4994682175654630e-03 0.0000000000000000e+00  1.0423168599013344e+00 -2.9068325967196777e-02 0.0000000000000000e+00  1.9197897425616681e+00 1.8482820710340855e-01 0.0000000000000000e+00  1.4075933831413903e+00 -1.2751554850646146e-02 0.0000000000000000e+00  7.2640207665519508e-06 -7.8035395229218106e-07 0.0000000000000000e+00  1.2679709112393205e-06 3.5315947290936468e-07 0.0000000000000000e+00  -7.7318563789393820e-07 -5.4265572066882119e-08 0.0000000000000000e+00  6.5625204975473150e-01 2.6765675016218830e-08 0.0000000000000000e+00  -1.8772092455790177e-06 -2.6789865505991069e-07 0.0000000000000000e+00  1.0808817369401533e+00 1.2837297440894483e-02 0.0000000000000000e+00  1.6669859965732159e+00 1.3694489695978085e-01 0.0000000000000000e+00  1.1765679146183845e+00 -2.2753931958885377e-03 0.0000000000000000e+00  -9.8503168096480741e-07 -1.1399376277376894e-07 0.0000000000000000e+00  -9.3568782874490705e-06 8.1839948926479724e-07 0.0000000000000000e+00  2.0603292364838440e-06 3.5398615820952275e-07 0.0000000000000000e+00  -2.2393337311010226e-06 -2.0983421773851243e-07 0.0000000000000000e+00  -8.3349696973057106e-07 4.5951534900381614e-09 0.0000000000000000e+00  2.6063687673204601e-06 2.0817969141806454e-07 0.0000000000000000e+00  -5.9821512296743230e-06 1.3529190808590214e-08 0.0000000000000000e+00  2.5562187945835299e-06 -7.2197800379207212e-07 0.0000000000000000e+00  6.1380301559080589e-07 -3.0307513170767390e-08 0.0000000000000000e+00  -4.8717677577993809e-08 1.5933468494175057e-08 0.0000000000000000e+00  1.1028975229823153e-06 -9.4903866759979537e-08 0.0000000000000000e+00  -8.4464685569101515e-07 1.4722701523589510e-07 0.0000000000000000e+00  -3.9301330477327657e-06 1.7390997246582228e-07 0.0000000000000000e+00  -3.4491073851122689e-06 7.7699398998735331e-07 0.0000000000000000e+00  -3.0582619890890368e-06 1.5098170860931145e-08 0.0000000000000000e+00  -4.6687398835411141e-06 6.6599117787869179e-07 0.0000000000000000e+00  -1.1181385103455595e-06 3.5189024474575308e-08 0.0000000000000000e+00  -3.7433985965535445e-06 8.0495821389612730e-08 0.0000000000000000e+00  7.1302995480139797e-01 -3.7481028144803467e-02 0.0000000000000000e+00  9.4253740351210358e-01 2.0959031772822167e-02 0.0000000000000000e+00  8.4734353454221489e-01 -5.4204750258526344e-03 0.0000000000000000e+00  1.0045026751172690e+00 4.5153779108572135e-03 0.0000000000000000e+00  1.6631411669366125e+00 -7.1746176574171289e-02 0.0000000000000000e+00  2.4824167129736570e-02 1.5828058533769767e-02 0.0000000000000000e+00  8.8338397222774034e-02 -3.0069557310010275e-02 0.0000000000000000e+00  1.2272003413840777e+00 6.5176287610859918e-02 0.0000000000000000e+00  1.0390527366825735e+00 -5.8628123609602426e-04 0.0000000000000000e+00  1.0357320659249973e+00 6.5032462002649491e-02 0.0000000000000000e+00  1.1272748288575274e+00 -2.8198983133446245e-03 0.0000000000000000e+00  8.9994325990173962e-01 6.5652342163170199e-04 0.0000000000000000e+00  1.2372844762864328e+00 -6.4871274087775098e-03 0.0000000000000000e+00  1.2224612552777641e+00 -5.6904942367468304e-03 0.0000000000000000e+00  1.2281645934097718e+00 6.0369340880912911e-03 0.0000000000000000e+00  1.1854247890031802e+00 -3.3978276906566798e-03 0.0000000000000000e+00  9.6382530355111706e-01 3.8730760794470531e-03 0.0000000000000000e+00  9.9974606861681947e-01 -1.0057681905342770e-04 0.0000000000000000e+00  9.0228841092920808e-01 -1.2019563995838999e-02 0.0000000000000000e+00  8.5599465205123693e-01 3.6325687115781866e-02 0.0000000000000000e+00  2.3111982858897176e-01 4.8896477937227525e-02 0.0000000000000000e+00  1.2099524052084267e+00 -5.7588114930269212e-02 0.0000000000000000e+00  8.0613358112081179e-01 -4.7990705673944020e-02 0.0000000000000000e+00  1.0987887975989215e+00 -1.4714706915318024e-01 0.0000000000000000e+00  1.5918175019632059e+00 -1.9588232724197235e-01 0.0000000000000000e+00  1.2592909555160590e+00 2.0070526895376518e-02 0.0000000000000000e+00  1.5360917309596094e+00 -2.4251977307030399e-02 0.0000000000000000e+00  1.4846403973767690e+00 3.3035535941529914e-02 0.0000000000000000e+00  1.2183626902756457e+00 7.4738112844554465e-03 0.0000000000000000e+00  1.4203344454118079e+00 -1.1455350532145180e-01 0.0000000000000000e+00  1.4819149223475858e+00 -1.0794702621675917e-01 0.0000000000000000e+00  9.1878521034928429e-01 6.0385253718831404e-02 0.0000000000000000e+00  8.2196740933166465e-02 -5.9715102724811897e-02 0.0000000000000000e+00  2.9115816644612180e-01 3.0479209042000514e-02 0.0000000000000000e+00  1.2602237888775609e+00 -1.4592167051457040e-02 0.0000000000000000e+00  1.0080873560778800e+00 1.0626910772534651e-02 0.0000000000000000e+00  1.1672449276327252e+00 -6.4613559895737617e-03 0.0000000000000000e+00  1.4811722463231418e+00 -4.0129567788005534e-02 0.0000000000000000e+00  7.5267962598554961e-01 2.4718659464593996e-02 0.0000000000000000e+00  9.6410199027757293e-01 1.2182551118849626e-02 0.0000000000000000e+00  1.3545479157520084e+00 -3.4730419497579518e-02 0.0000000000000000e+00  1.1905018145861925e+00 1.1006017323955203e-01 0.0000000000000000e+00  9.7661817881738633e-01 3.1158736039920850e-03 0.0000000000000000e+00  6.5624907044116665e-01 9.6506220936582178e-08 0.0000000000000000e+00  1.0797746734994029e+00 6.9900533792401548e-02 0.0000000000000000e+00  1.5671861147816515e+00 3.9468847559765811e-02 0.0000000000000000e+00  1.5814959914573983e+00 -3.2222622343205824e-02 0.0000000000000000e+00  9.8887649231908015e-01 7.3432885331868050e-02 0.0000000000000000e+00  1.0822341938722362e+00 6.7661978315222679e-02 0.0000000000000000e+00  7.3501208927581740e-01 1.9947133437702207e-02 0.0000000000000000e+00  7.9601326683927642e-01 9.9805366138293328e-02 0.0000000000000000e+00  1.4552067626747169e+00 6.6138476032511925e-02 0.0000000000000000e+00  1.6224158815083591e+00 1.4840765242795001e-01 0.0000000000000000e+00  1.3287695288893213e+00 -5.0523690255636515e-02 0.0000000000000000e+00  1.4904830827827367e+00 -6.4135815377753405e-03 0.0000000000000000e+00  1.6086108401665353e+00 -1.6537397122704019e-02 0.0000000000000000e+00  1.5162393054734025e+00 -1.3784289381217618e-01 0.0000000000000000e+00  1.1508489069188765e+00 -3.3597161276824321e-02 0.0000000000000000e+00  1.2275747172811222e+00 -5.7556355152193952e-03 0.0000000000000000e+00  1.2403341554273239e+00 -2.5252290161747555e-03 0.0000000000000000e+00  8.7542075372423334e-01 1.5837549289900298e-02 0.0000000000000000e+00  1.6047163504484478e+00 9.7427927553660545e-02 0.0000000000000000e+00  9.4149210230553848e-01 9.3594798686239739e-02 0.0000000000000000e+00  1.2761661982844583e+00 -1.7155782715371895e-02 0.0000000000000000e+00  1.2233285736292576e+00 1.6037521888007808e-01 0.0000000000000000e+00  9.7004226139938721e-01 7.5619303434364630e-03 0.0000000000000000e+00  1.2331264570288862e+00 1.1721235619018847e-02 0.0000000000000000e+00  1.3609836521970451e+00 9.6941874035088957e-02 0.0000000000000000e+00  1.4238750902901518e+00 -2.0200232535466576e-02 0.0000000000000000e+00  1.2235611528524863e+00 -9.0637751438976905e-04 0.0000000000000000e+00  1.3838260282948445e+00 2.2022243223823741e-02 0.0000000000000000e+00  1.2407542847222586e+00 -3.9742878293582737e-02 0.0000000000000000e+00  1.4894288603779817e+00 5.6739207216936118e-03 0.0000000000000000e+00  7.8399747596411318e-01 -1.1405180793601560e-02 0.0000000000000000e+00  6.4199844136507855e-01 -5.0524580242233231e-03 0.0000000000000000e+00  7.0709684403706308e-01 -1.2930368063076398e-04 0.0000000000000000e+00  8.1753977964390812e-01 -1.8222427775235247e-02 0.0000000000000000e+00  1.2289923988013947e+00 1.0958622585097741e-02 0.0000000000000000e+00  8.3965809936421476e-01 1.4078957927776067e-03 0.0000000000000000e+00  1.1649203230463856e+00 1.0580175932426763e-02 0.0000000000000000e+00  1.2838384966132761e+00 4.7671876505224553e-03 0.0000000000000000e+00  8.3739949782058509e-01 2.3825040792938557e-02 0.0000000000000000e+00  8.2825319795948837e-01 4.5788969000145736e-02 0.0000000000000000e+00  1.2490042431559021e+00 -1.6684609505219342e-02 0.0000000000000000e+00  1.3023317735082844e+00 -1.0651711758230490e-02 0.0000000000000000e+00  5.4076149633916359e-01 -1.3327305978659876e-02 0.0000000000000000e+00  1.3812227396310739e+00 -5.2418967541040945e-02 0.0000000000000000e+00  7.8227850563296508e-01 -1.3623321329669117e-02 0.0000000000000000e+00  8.4439446529095075e-01 5.2502188745674272e-03 0.0000000000000000e+00  7.3882458514526883e-01 -7.9208721797027232e-02 0.0000000000000000e+00  1.1948128895870329e+00 -3.2096228864534830e-02 0.0000000000000000e+00  7.5631952113916212e-01 6.4882822198628828e-03 0.0000000000000000e+00  1.4642579137096845e+00 -1.8158120689674803e-02 0.0000000000000000e+00  1.5282196623587834e+00 4.7601666387591263e-01 0.0000000000000000e+00  1.0045538207499771e+00 1.8216626316251144e-01 0.0000000000000000e+00  8.5647412464567896e-01 8.3522308772131867e-06 0.0000000000000000e+00  1.3193387137023047e+00 -1.2576738244837291e-01 0.0000000000000000e+00  1.4490384951341333e+00 -5.4631840662502662e-01 0.0000000000000000e+00  7.5849121797131802e-01 1.4168281756203548e-03 0.0000000000000000e+00  8.9164605489167792e-01 -2.6166481542568378e-03 0.0000000000000000e+00  1.4851088800332326e+00 -5.4334704076649766e-03 0.0000000000000000e+00  3.1317960475740630e-01 4.3137444810824085e-02 0.0000000000000000e+00  1.4062540550764571e+00 1.8840721327656301e-07 0.0000000000000000e+00  1.2462745916941653e+00 -4.5651538959908533e-03 0.0000000000000000e+00  8.5685222163721908e-01 -3.8109966506094737e-04 0.0000000000000000e+00  1.4062506230842797e+00 1.0580703571651757e-07 0.0000000000000000e+00  8.5897405545496186e-01 7.3976942032178764e-03 0.0000000000000000e+00  1.8375056449034104e+00 -3.3017346589603808e-01 0.0000000000000000e+00  1.4417937517347992e+00 -1.8267252205809804e-02 0.0000000000000000e+00  7.1440007457653820e-01 9.8543185580757489e-02 0.0000000000000000e+00  1.2486670108829347e+00 -1.0300090631089215e-02 0.0000000000000000e+00  7.1065278974419410e-01 -2.1083726749464623e-02 0.0000000000000000e+00  5.9161830338686394e-01 -1.7503312260801276e-02 0.0000000000000000e+00  1.3775904396966627e+00 -4.6779889257423934e-02 0.0000000000000000e+00  5.0866016173410422e-01 -5.2394256978064904e-03 0.0000000000000000e+00  7.2054113147567900e-01 -9.7882207049500517e-03 0.0000000000000000e+00  1.3132673918944540e+00 -4.3