<?xml version="1.0"?>
<VTKFile type="UnstructuredGrid"  version="0.1"  >
<UnstructuredGrid>
<Piece  NumberOfPoints="2426" NumberOfCells="4534">
<Points>
<DataArray  type="Float64"  NumberOfComponents="3"  format="ascii">0 0.41 0  0 0 0  2.2 0 0  2.2 0.41 0  0.2404508497187474 0.2293892626146237 0  0.25 0.2 0  0.2404508497187474 0.1706107373853764 0  0.2154508497187474 0.1524471741852423 0  0.1845491502812526 0.1524471741852423 0  0.1595491502812526 0.1706107373853764 0  0.15 0.2 0  0.1595491502812526 0.2293892626146237 0  0.1845491502812527 0.2475528258147577 0  0.2154508497187474 0.2475528258147577 0  0.5404508497187474 0.2293892626146237 0  0.55 0.2 0  0.5404508497187474 0.1706107373853764 0  0.5154508497187473 0.1524471741852423 0  0.4845491502812526 0.1524471741852423 0  0.4595491502812526 0.1706107373853764 0  0.45 0.2 0  0.4595491502812526 0.2293892626146237 0  0.4845491502812526 0.2475528258147577 0  0.5154508497187473 0.2475528258147577 0  1.1 0 0  0 0.205 0  1.1 0.41 0  0.55 0 0  0.55 0.41 0  0.275 0 0  0.275 0.41 0  1.65 0.41 0  1.65 0 0  1.375 0 0  1.375 0.41 0  1.925 0 0  1.925 0.41 0  0.8250000000000001 0.41 0  0.8250000000000001 0 0  1.5125 0.205 0  1.7875 0.205 0  0.9625000000000001 0.205 0  1.2375 0.205 0  2.2 0.205 0  0.7560964076246335 0.2151713709677419 0  1.99375 0.2152743902439024 0  2.0625 0 0  0.6875 0 0  2.0625 0.41 0  2.2 0.3075 0  0.6875 0.41 0  1.7875 0.41 0  1.375 0.1486128048780488 0  1.5125 0 0  1.7875 0 0  1.5125 0.41 0  0.9625000000000001 0 0  0.9625000000000001 0.41 0  0.4125 0 0  0.1375 0 0  0.1375 0.41 0  0.4125 0.41 0  1.2375 0 0  1.1 0.1486128048780487 0  1.2375 0.41 0  1.65 0.1486128048780487 0  1.126715909090909 0.2793064024390244 0  1.676715909090909 0.2793064024390244 0  1.348284090909091 0.2793064024390244 0  0.34375 0.3032389320646208 0  1.894702181800738 0.1282910975492754 0  2.092797818199262 0.1282910975492754 0  1.85625 0.3075 0  0.8630851210521902 0.286932093388664 0  0.89375 0.1025 0  0.35 0.1090282786671641 0  0 0.3075 0  0 0.1025 0  0.6526217841291382 0.288229645480046 0  0.7562500000000001 0.09660248895515888 0  0.6568633732316684 0.1557582854763441 0  2.099172119769978 0.25625 0  1.002356446954348 0.1010393851523063 0  1.99375 0.08395950269330846 0  1.459960956013612 0.3075 0  1.569025960719943 0.2986889805672169 0  1.03125 0.3278689922742084 0  0.75625 0.3247156761655783 0  1.959375 0.3126371951219512 0  1.749222215368287 0.1025 0  1.275777784631713 0.1025 0  2.2 0.1025 0  1.225938124459196 0.3075 0  1.550777784631713 0.1025 0  1.44375 0.07430640243902442 0  1.16875 0.07430640243902437 0  0.3528655045338512 0.2063263890916129 0  0.5890337614812103 0.08775733857679162 0  0.8504912436891263 0.190072835691683 0  1.899250267340833 0.2229966846119207 0  0.1020898364287272 0.3140258291809757 0  1.766482954545455 0.2934032012195123 0  1.051658316544432 0.2265720188842194 0  0.2 0.3400647632937836 0  1.421109702350723 0.2261157654379721 0  0.4812500000000001 0.41 0  0.4324401666997539 0.3216425986889796 0  0.098916018031319 0.09171660955420841 0  0.9508742791313441 0.2921736960864468 0  2.13125 0 0  2.118919042110979 0.3422084711244843 0  1.30625 0.41 0  0.20625 0 0  1.597888256393107 0.2173787389261347 0  0.4812500000000001 0 0  0.4324082967851086 0.08384041677422771 0  1.829299675393195 0.07400700849299596 0  0.568219932524165 0.3212274660843853 0  1.71875 0.41 0  0.268005226542646 0.08512186835670006 0  1.16875 0.41 0  2.038220665644273 0.332420740103091 0  0.6678017527842831 0.07701763866051195 0  0.89375 0.41 0  0.5111435174287687 0.07335351331957608 0  0.176193934632343 0.0734896648625108 0  0.07390688010811153 0.1697064032433452 0  0.05452951551825875 0.25625 0  0.61875 0.41 0  1.452769549894695 0.1548122580621249 0  1.369219062229598 0.07430640243902442 0  1.30625 0 0  1.720943423819132 0.1714577452753128 0  1.157188124459196 0.205 0  1.094219062229598 0.07430640243902437 0  1.304056576180868 0.1714577452753128 0  1.67579304192913 0.07430640243902437 0  0.2672907219039591 0.3037570723459566 0  1.209670467133757 0.1362100266964769 0  1.58125 0 0  1.03125 0 0  0.06875000000000001 0.41 0  0 0.35875 0  1.58125 0.41 0  1.631724228912893 0.3381867502687533 0  0.8240147050827157 0.1225233169495944 0  1.825608881788174 0.14499488549201 0  1.85625 0 0  1.44375 0 0  1.44375 0.41 0  1.85625 0.41 0  2.13125 0.41 0  0.7562500000000001 0.41 0  0.7562500000000001 0 0  0.89375 0 0  0.34375 0 0  0.34375 0.41 0  0.20625 0.41 0  0.06875000000000001 0 0  1.16875 0 0  1.03125 0.41 0  0.61875 0 0  1.71875 0 0  1.99375 0 0  1.99375 0.41 0  0.3972301426712326 0.2593842555611471 0  1.340625 0.3489494290853124 0  1.134375 0.3489494290853123 0  1.700180620188976 0.3438659752031281 0  0.5003922072260507 0.341765274319271 0  0.6212513815748759 0.2209216137134851 0  0.6885607720119526 0.215393731583638 0  1.033412357328477 0.1612902025713047 0  2.135782184673599 0.07126652247502523 0  1.668441847249787 0.2129203728327609 0  1.295782514339747 0.2378437748815763 0  1.409375 0.3520314716057996 0  2.129248544730567 0.1906135162504124 0  2.060771381434487 0.1989445750470348 0  2.013252586573865 0.1496169464686054 0  1.942766402200229 0.1734448904596831 0  1.895522487186454 0.06076163953489683 0  2.069553871656643 0.06605731020975725 0  0.9281250000000001 0.3539050257418612 0  1.274680914880868 0.3520219391081363 0  0.3030138498135347 0.2488370856812789 0  0.8223773249563684 0.341761430177996 0  0.9018164060227267 0.2326477848736739 0  0.8143027982392851 0.2440265179987191 0  0.7225087161029304 0.2699907246386231 0  1.614713220494657 0.09473434380863296 0  0.378125 0.3566194660323104 0  0.309375 0.3566194660323104 0  1.72990325744076 0.2380068107952482 0  0.6915936999299305 0.3429472631234433 0  0.6268087624932918 0.3466455500035671 0  1.356580098625191 0.2120393231351682 0  0.3060160055995138 0.1590148921620778 0  0.3954648733249218 0.156380553890791 0  2.034370752044885 0.2668681600792073 0  1.51768709249349 0.3426260931494756 0  1.561883724969884 0.1650446847858835 0  1.197344062229598 0.2523725417393646 0  0.9281250000000001 0.05124999999999999 0  1.804085235518364 0.3468178408964637 0  1.817887819205233 0.2589243285818559 0  0.9107805776841645 0.1653834539923287 0  1.905897727272727 0.3485060975609756 0  0 0.05125 0  0.844212276491354 0.0614201194265309 0  0.378125 0.05244637078450034 0  1.008571329007178 0.2705955969954818 0  0.7724048032149464 0.1559079561351474 0  0.7203054377831548 0.04941826955193545 0  1.192836486056382 0.3562350748565544 0  0.5967108020713719 0.1479294686523888 0  1.28257088594801 0.2944411014911587 0  0.7041890234548132 0.1222025174424443 0  1.474860187679412 0.2504218616229368 0  1.406767003493824 0.2829282258560709 0  0.3201325899091991 0.05890121548989159 0  0.5979220912872258 0.2727591995766724 0  1.845656689180403 0.1998310418452388 0  2.144958525570388 0.2909790873294231 0  2.2 0.15375 0  1.57794966442982 0.3540357145964566 0  0.9483181579620558 0.1214693369582054 0  0.0496154796471391 0.333125 0  1.508991196088596 0.1421783375065625 0  0.09776612425612034 0.2204896805326566 0  1.50436820029908 0.06143401634903343 0  1.223857000523521 0.0823554862453532 0  0.2531953886959507 0.3582003209055908 0  1.153316824384777 0.1289850171317837 0  2.148922302309752 0.1258841779285271 0  1.621993280276081 0.2841214267927899 0  1.550118654119087 0.2461998729100966 0  1.327182649291491 0.1216967252533594 0  1.753125 0.04556020050186112 0  1.271875 0.04556020050186116 0  0.9824282234771738 0.05051969257615314 0  1.039510847866381 0.05683351822678641 0  1.94956388244759 0.1180512551534177 0  1.949997712993411 0.04965831614304109 0  1.771961817615021 0.1530278789497521 0  1.909246823951428 0.2812757146784527 0  1.101974016627944 0.2038045618205013 0  0.7906250000000001 0.0444674049654372 0  1.948575539857022 0.2445328248721197 0  1.697271520964565 0.1233917627620729 0  1.065625 0.3689344961371042 0  1.085849084308977 0.3170853572226867 0  0.9840604787624379 0.3582077516409966 0  1.577403511714593 0.05463601888079143 0  0.05622663515370135 0.05493816910862376 0  0.8762396958822678 0.3392249777398821 0  1.751571320346033 0.3651102912045228 0  1.055327852410105 0.111864799513911 0  0.1583785085108421 0.2994699345738728 0  0.1455283439499995 0.3542795598723423 0  2.2 0.35875 0  0.225705107073232 0.05084786997482401 0  0.1455852234589313 0.1166494778469164 0  1.466879772203159 0.3611261772912453 0  1.990280163552011 0.3564754268533217 0  1.17471064520912 0.2990917256188288 0  0.7221925551074015 0.1739659241003985 0  0 0.25625 0  2.2 0.25625 0  2.2 0.05125 0  0 0.15375 0  1.853978576207987 0.35875 0  0.21965520498276 0.1015543880164422 0  1.515638456102889 0.2882700110184686 0  0.09048297387599738 0.3637717362208066 0  2.150453692751374 0.2387066338105111 0  1.323782677156475 0.04897634338873398 0  1.409375 0.03715320121951221 0  1.406484531114799 0.1087852750766809 0  1.134375 0.03715320121951218 0  1.627401732573545 0.04552157221025036 0  0.446875 0.3713289093361426 0  2.045405893604797 0.1105340662939892 0  1.255408269734577 0.1577307500159216 0  2.028125 0.03707597992059326 0  0.04420832937638274 0.128125 0  0.5817551710628505 0.3702615006034757 0  0.1197849154434487 0.2663398672460083 0  1.248258025468107 0.2565907092181813 0  0.1300647302703173 0.0508462728378621 0  0.7738123537510222 0.2761231499240648 0  1.203125 0.0366132337404304 0  0.5444207041612499 0.111205399508622 0  0.8016457771828226 0.1964238426015905 0  2.072662025974815 0.2975086504196739 0  0.4019040438866802 0.2103993403217561 0  0.4677372330974851 0.04827477407630658 0  0.8677218578847617 0.1432970430140788 0  1.058011122005847 0.2758866204059919 0  0.4429405887974043 0.2746184809910084 0  0.5843750000000001 0.03726989681835222 0  0.6318596133730142 0.1128692182767254 0  0.4862628454464408 0.2957029785303028 0  0.7805186758662764 0.3673578380827891 0  1.887722846421017 0.1760882698830035 0  0.3498893058880703 0.256189258793856 0  1.472640588990488 0.1118278026240017 0  1.865937103925594 0.2604137786483804 0
[...]
<PointData  Vectors="f_37"> 
<DataArray  type="Float64"  Name="f_37"  NumberOfComponents="3" format="ascii">-6.1318262996307805e-07 2.0286744210175449e-08 0.0000000000000000e+00  3.7434861805433031e-07 -3.0039183810689328e-08 0.0000000000000000e+00  -8.5422917266727875e-07 -3.7593476386757220e-09 0.0000000000000000e+00  2.6074434339866487e-06 1.3403838005191132e-07 0.0000000000000000e+00  -9.8431205008115627e-07 1.2541446642077321e-07 0.0000000000000000e+00  -7.7178956993063058e-07 9.2773363328327572e-08 0.0000000000000000e+00  -1.6668568752558756e-06 3.0455457028490691e-07 0.0000000000000000e+00  1.1419620717202478e-06 2.8166902833082865e-07 0.0000000000000000e+00  2.8965099565019943e-06 -4.5270794981433478e-07 0.0000000000000000e+00  -9.3167699496381348e-07 6.0099937798093659e-08 0.0000000000000000e+00  -1.7421599426534272e-06 1.0785926008060175e-06 0.0000000000000000e+00  6.3623730432442352e-07 2.2201226680971248e-06 0.0000000000000000e+00  -3.7659470201980792e-06 -1.2765748135860212e-06 0.0000000000000000e+00  -3.5128869530358514e-06 -8.6870764360252516e-07 0.0000000000000000e+00  -2.0308384116302770e-06 -2.5421368511700291e-07 0.0000000000000000e+00  -1.4054168762721033e-06 -8.0098897856000575e-07 0.0000000000000000e+00  -3.6797715519897509e-06 -4.7255335111223463e-07 0.0000000000000000e+00  -2.1694525222157135e-06 1.7460262734915777e-07 0.0000000000000000e+00  -1.1045024270538270e-06 -2.9461127051570724e-07 0.0000000000000000e+00  -2.5852003514733978e-06 -2.3508992577604022e-08 0.0000000000000000e+00  -9.4113481358607920e-07 -3.3556119421081407e-08 0.0000000000000000e+00  -9.8138637483776339e-08 -1.2042806888295573e-07 0.0000000000000000e+00  -1.3797151666398113e-06 2.1976304469409155e-07 0.0000000000000000e+00  -1.2611613353301700e-06 1.4470445719464906e-07 0.0000000000000000e+00  -8.9967399683582336e-07 -4.4666461716179798e-07 0.0000000000000000e+00  1.5000025202300924e+00 4.2234468632365030e-09 0.0000000000000000e+00  -4.9765223260590962e-07 -3.0871899685941078e-07 0.0000000000000000e+00  -2.5480821980469292e-06 -3.7696285101749671e-08 0.0000000000000000e+00  -6.7126412829848100e-07 9.2741233937932124e-08 0.0000000000000000e+00  -2.6100563091481118e-06 8.7916874480734342e-08 0.0000000000000000e+00  -1.1116079659396158e-06 -2.8716503327497535e-08 0.0000000000000000e+00  -7.4150570155244616e-07 1.1097837611922496e-07 0.0000000000000000e+00  -6.2276171701859844e-08 1.7094354666673748e-07 0.0000000000000000e+00  -5.4516270171233819e-07 1.5812431906623108e-07 0.0000000000000000e+00  4.1116480032143081e-06 2.2322294640636326e-07 0.0000000000000000e+00  1.4110970382317833e-07 -1.6577257874140907e-07 0.0000000000000000e+00  -1.6727374119737495e-06 -2.3786659254284830e-08 0.0000000000000000e+00  -2.0825896310366049e-06 -1.1789224448858792e-07 0.0000000000000000e+00  -5.0266027899242571e-07 -2.5756454416907943e-07 0.0000000000000000e+00  1.0432604555065672e+00 -4.6784447301305050e-02 0.0000000000000000e+00  1.1994017035955673e+00 -2.2137343728215377e-02 0.0000000000000000e+00  6.2766343394046809e-01 2.2608141557058400e-03 0.0000000000000000e+00  9.0383307476340669e-01 3.4709975219525825e-02 0.0000000000000000e+00  1.2569979644051101e+00 1.6414549698879417e-02 0.0000000000000000e+00  2.0105554980578003e-01 -5.4882587752643305e-02 0.0000000000000000e+00  1.1926578556649490e+00 -1.2722463692456672e-02 0.0000000000000000e+00  -1.4127986296015249e-06 1.1835920570748674e-07 0.0000000000000000e+00  -2.0137497009945515e-06 -7.4922632250565531e-08 0.0000000000000000e+00  -1.7912547142340114e-06 -2.1496202937624983e-07 0.0000000000000000e+00  1.2656336005598796e+00 -1.3466130159735299e-02 0.0000000000000000e+00  3.2771262151718920e-08 -3.9937666771991098e-09 0.0000000000000000e+00  1.7916329377009726e-06 4.5876706169443892e-08 0.0000000000000000e+00  1.2967418905435155e+00 -2.6569530288121260e-03 0.0000000000000000e+00  3.2739194879127222e-06 -2.5246721067425011e-07 0.0000000000000000e+00  -9.3467856998732807e-07 1.0458739969114154e-07 0.0000000000000000e+00  -1.3804725124776673e-06 -3.3474610574603688e-07 0.0000000000000000e+00  -2.7914367952602431e-06 3.0059705473948569e-07 0.0000000000000000e+00  1.2211091127740425e-06 1.9271403895444720e-07 0.0000000000000000e+00  -7.3095805081277676e-07 -3.1172878708488524e-08 0.0000000000000000e+00  3.0789779715167099e-07 6.4177173795965170e-08 0.0000000000000000e+00  5.8977728686302475e-07 1.3308385389569385e-07 0.0000000000000000e+00  -2.7348922094663195e-06 1.0649496562825694e-07 0.0000000000000000e+00  2.2328931834433631e-06 9.6693404840684899e-08 0.0000000000000000e+00  1.3874964375265153e+00 2.2471112864004866e-02 0.0000000000000000e+00  -2.3825289313872301e-06 5.7974332373840486e-08 0.0000000000000000e+00  1.3482430139026451e+00 2.9470018974754049e-02 0.0000000000000000e+00  1.5563136092550167e+00 -3.8304480781515939e-03 0.0000000000000000e+00  1.4758318199920735e+00 -1.0558753795508326e-02 0.0000000000000000e+00  1.5433431413950032e+00 -2.9555058106550045e-02 0.0000000000000000e+00  1.9611869802340174e+00 3.0511039633647867e-02 0.0000000000000000e+00  1.3675261801211573e+00 -8.5184833970300168e-03 0.0000000000000000e+00  1.3061923410485206e+00 3.2363489043747040e-03 0.0000000000000000e+00  1.2583412003986718e+00 1.5382001814807637e-02 0.0000000000000000e+00  1.6722363233241817e+00 -9.9048031979146967e-02 0.0000000000000000e+00  1.5385692727545495e+00 6.9604296323754256e-02 0.0000000000000000e+00  1.8646745087511403e+00 1.0585270733125677e-02 0.0000000000000000e+00  1.1249986027511747e+00 -1.7779470234780842e-07 0.0000000000000000e+00  1.1250027040002133e+00 1.0155704793129213e-08 0.0000000000000000e+00  1.7683176300360099e+00 -1.6907392705916782e-01 0.0000000000000000e+00  1.6524617128131232e+00 1.4819906075870962e-01 0.0000000000000000e+00  7.3093572912898686e-01 9.3220332675908291e-02 0.0000000000000000e+00  1.2834433948530639e+00 7.1108209054605465e-02 0.0000000000000000e+00  1.4764615153357421e+00 2.0357866530019423e-02 0.0000000000000000e+00  1.0920031546403126e+00 6.6203990338450469e-04 0.0000000000000000e+00  1.3378835305905561e+00 1.5706475455720188e-02 0.0000000000000000e+00  1.3945146821007668e+00 1.2310513179160676e-02 0.0000000000000000e+00  1.2297859820372281e+00 -2.0432242651557485e-02 0.0000000000000000e+00  1.5450521655265435e+00 -1.1471484765758395e-01 0.0000000000000000e+00  1.2298081380683294e+00 2.6983039402219307e-03 0.0000000000000000e+00  1.2606863631442773e+00 -2.9760959670000718e-03 0.0000000000000000e+00  1.3738349414688356e+00 -1.0640539957579012e-02 0.0000000000000000e+00  1.1686872620976612e+00 -1.1244258982668648e-02 0.0000000000000000e+00  1.4236447456003656e+00 -1.9779112684877274e-03 0.0000000000000000e+00  1.3288539914775950e+00 1.1716260893604951e-02 0.0000000000000000e+00  1.0584030276301331e+00 4.2483578963244985e-03 0.0000000000000000e+00  1.0783493772685098e+00 6.1722987699848264e-03 0.0000000000000000e+00  -3.3018302097486418e-01 -1.2158424541030596e-02 0.0000000000000000e+00  1.7801319526765966e+00 1.2152300376448530e-01 0.0000000000000000e+00  4.4504634836948542e-01 6.3364397389109414e-02 0.0000000000000000e+00  1.2420388954927701e+00 -7.6276060252016026e-02 0.0000000000000000e+00  1.1818443984931726e+00 2.5546741004573470e-01 0.0000000000000000e+00  1.4132107520117116e+00 -2.2331216337186308e-02 0.0000000000000000e+00  1.0534060480506382e+00 -6.0909753171660794e-02 0.0000000000000000e+00  1.3810698667558652e+00 2.1770177792756915e-01 0.0000000000000000e+00  1.1929295084994216e+00 -4.3438559050046031e-02 0.0000000000000000e+00  9.2889973680696194e-07 -1.5666747516618007e-09 0.0000000000000000e+00  1.8404577924879795e+00 -6.1660423973174790e-02 0.0000000000000000e+00  1.1435792374269018e+00 -2.5637543021946918e-01 0.0000000000000000e+00  1.6340122631684719e+00 -7.9081353547055006e-02 0.0000000000000000e+00  -1.6131665550486552e-06 3.7035232601142600e-08 0.0000000000000000e+00  9.5952201713806917e-01 -5.1534131641736843e-04 0.0000000000000000e+00  -6.2029801665102128e-07 4.5459776809594772e-07 0.0000000000000000e+00  -6.9110909030355351e-06 2.6852915910168784e-07 0.0000000000000000e+00  1.0765059152895444e+00 2.9548736724815804e-02 0.0000000000000000e+00  9.0705518303256494e-07 -1.7649465993549657e-08 0.0000000000000000e+00  1.8245886902885331e+00 7.7903168179435697e-02 0.0000000000000000e+00  1.0284316597438325e+00 -2.6979968703896504e-04 0.0000000000000000e+00  1.7915096495401874e+00 -1.1552684110473314e-01 0.0000000000000000e+00  -3.1521652881054181e-07 2.6319965591883709e-07 0.0000000000000000e+00  1.7978480447730256e+00 -1.4108269356725656e-01 0.0000000000000000e+00  -3.1561466698048820e-06 -3.8049665204357421e-07 0.0000000000000000e+00  1.0728558221662641e+00 3.5315852667730037e-03 0.0000000000000000e+00  1.6066083706658609e+00 1.2958715674351923e-01 0.0000000000000000e+00  -3.3436544975855584e-06 2.1773038234466458e-07 0.0000000000000000e+00  1.7216559673873715e+00 7.3655894259042620e-02 0.0000000000000000e+00  1.3596477295031530e+00 -3.0224967185063006e-01 0.0000000000000000e+00  1.3399863232948566e+00 -1.2284687778708515e-01 0.0000000000000000e+00  1.3729705065059534e+00 1.2465834991756126e-01 0.0000000000000000e+00  4.0044932393427554e-07 3.5102886878546362e-08 0.0000000000000000e+00  1.2720671802094234e+00 -1.3656568471595503e-02 0.0000000000000000e+00  1.0673670560120883e+00 -6.4628432591887349e-03 0.0000000000000000e+00  -4.7676605122847107e-07 4.4083547918094771e-07 0.0000000000000000e+00  1.1480877624770738e+00 5.7587761380543917e-02 0.0000000000000000e+00  8.4672351397755263e-01 -1.9513256809017325e-02 0.0000000000000000e+00  1.1155029763083555e+00 1.4369723745173471e-02 0.0000000000000000e+00  1.1179210666993118e+00 3.5073530678038443e-02 0.0000000000000000e+00  1.0274263675329891e+00 -8.2769314252795420e-03 0.0000000000000000e+00  1.9202820905043092e+00 1.8483921947358095e-01 0.0000000000000000e+00  1.4973805464181620e+00 3.1069335901937951e-02 0.0000000000000000e+00  4.2164246698479677e-06 -1.1859913898521994e-07 0.0000000000000000e+00  -2.9201093573085264e-06 1.3470743307705051e-07 0.0000000000000000e+00  -8.0628436206941269e-07 -5.7126590836487176e-08 0.0000000000000000e+00  6.5625203736651339e-01 1.3734279927245659e-08 0.0000000000000000e+00  -3.2699644046829195e-06 -1.6468954518562009e-07 0.0000000000000000e+00  1.0175830138220963e+00 -3.1784726448195796e-03 0.0000000000000000e+00  1.6319463533368577e+00 1.3974239513639258e-01 0.0000000000000000e+00  1.2208674538194375e+00 -3.0356894854547418e-02 0.0000000000000000e+00  -1.6227749930635573e-06 1.3360438282748810e-07 0.0000000000000000e+00  -4.1644394048391315e-06 -1.9188501896675765e-07 0.0000000000000000e+00  1.1772822037956668e-06 -8.1121286520841625e-08 0.0000000000000000e+00  -1.4041009313359281e-06 -1.8673972591353176e-07 0.0000000000000000e+00  -1.4244619353809299e-06 2.4263994339680006e-07 0.0000000000000000e+00  -9.1813879915010903e-07 -3.3388673396308148e-08 0.0000000000000000e+00  -1.7657179954760326e-06 -3.1449832116071832e-07 0.0000000000000000e+00  5.0452310547901604e-07 6.3627605022258771e-08 0.0000000000000000e+00  2.3340754736638465e-07 -5.9655003939329229e-09 0.0000000000000000e+00  3.2514270666354971e-07 1.8592600177703470e-08 0.0000000000000000e+00  1.1547744022784575e-06 -8.9238241153819538e-08 0.0000000000000000e+00  -8.2041971270295703e-07 1.4380294785887150e-07 0.0000000000000000e+00  3.1331109821207318e-06 -3.0905766697391821e-07 0.0000000000000000e+00  1.2364761199502450e-06 9.9001452729314783e-08 0.0000000000000000e+00  -3.3128484906941700e-06 -1.9309291121114368e-07 0.0000000000000000e+00  -3.3293859002093577e-06 4.3523018173418665e-09 0.0000000000000000e+00  4.3546245913732499e-07 -1.6307766995834821e-07 0.0000000000000000e+00  -2.8990502755850804e-06 1.0218090526699991e-08 0.0000000000000000e+00  7.2527137317749113e-01 -4.1653294313814405e-02 0.0000000000000000e+00  8.4895363551850067e-01 -8.6921925469094234e-04 0.0000000000000000e+00  8.7225481819207729e-01 9.1123583892059948e-03 0.0000000000000000e+00  9.2516682420300111e-01 -2.9809537166788089e-03 0.0000000000000000e+00  1.6560067023681750e+00 -7.0925174231026109e-02 0.0000000000000000e+00  1.1665438872725231e-02 -1.6867948604932934e-02 0.0000000000000000e+00  3.8081040642602412e-02 -5.6214711570495131e-02 0.0000000000000000e+00  1.1352916492384375e+00 1.0393172924661586e-02 0.0000000000000000e+00  9.7649254606473213e-01 -9.2871059436702482e-03 0.0000000000000000e+00  1.1068766267237256e+00 7.8214814389849771e-02 0.0000000000000000e+00  1.2323985143262950e+00 3.7403825170110108e-03 0.0000000000000000e+00  8.0183109101834693e-01 8.0109297918657327e-03 0.0000000000000000e+00  1.2297830762753288e+00 1.0590168553428786e-01 0.0000000000000000e+00  1.2763524649714817e+00 6.8586318266072463e-02 0.0000000000000000e+00  1.4141951005397546e+00 4.4198629438547875e-02 0.0000000000000000e+00  1.2739281585773734e+00 -3.9697785349089111e-02 0.0000000000000000e+00  8.6035496758568764e-01 2.0198053074684686e-03 0.0000000000000000e+00  9.1696749279071121e-01 -8.6455702885609598e-03 0.0000000000000000e+00  8.7926892154278224e-01 -2.8578625695961531e-02 0.0000000000000000e+00  8.1422495216447954e-01 -2.0035799879644573e-03 0.0000000000000000e+00  2.3137636611254253e-01 5.1635827534090718e-02 0.0000000000000000e+00  1.2350756355615067e+00 -6.7828670817753928e-02 0.0000000000000000e+00  9.4978079262435877e-01 -3.9799169122085816e-02 0.0000000000000000e+00  1.0512486442790880e+00 -8.8473250992839855e-02 0.0000000000000000e+00  1.5402697875541422e+00 -1.6644163653135199e-01 0.0000000000000000e+00  1.2290306834986671e+00 -6.4553310417568418e-03 0.0000000000000000e+00  1.5344590489243743e+00 -2.6233187784373637e-02 0.0000000000000000e+00  1.4845831994828755e+00 3.2314215943939656e-02 0.0000000000000000e+00  1.3406507582512255e+00 2.5753161208568846e-03 0.0000000000000000e+00  1.4245044439741288e+00 -1.0565314389809885e-01 0.0000000000000000e+00  1.4785700973593388e+00 -1.0268147329556285e-01 0.0000000000000000e+00  1.0343514325734693e+00 -8.1533086962000065e-04 0.0000000000000000e+00  8.0051163494784819e-02 -5.4402472906655515e-02 0.0000000000000000e+00  2.8345023114651507e-01 2.5970390499462457e-02 0.0000000000000000e+00  1.2546614523730268e+00 2.4170217915431023e-02 0.0000000000000000e+00  9.5521185221851890e-01 1.2034517272667578e-02 0.0000000000000000e+00  1.3044056535036155e+00 2.6339554225825672e-02 0.0000000000000000e+00  1.3555823799230073e+00 9.7290422890891170e-04 0.0000000000000000e+00  7.8670237678961785e-01 1.0598341787976842e-02 0.0000000000000000e+00  8.8164859362356440e-01 8.1158337930872775e-03 0.0000000000000000e+00  1.4551048489345981e+00 -3.7411424782459263e-02 0.0000000000000000e+00  1.0267105514042874e+00 7.9596215952381505e-02 0.0000000000000000e+00  8.8210317873931421e-01 5.0443216360577595e-03 0.0000000000000000e+00  6.5624905357525443e-01 8.4627269282410423e-08 0.0000000000000000e+00  1.0694618885703797e+00 5.2821543306492365e-02 0.0000000000000000e+00  1.5671253588935292e+00 3.7405704759230926e-02 0.0000000000000000e+00  1.6090597154859934e+00 -7.0138544702766897e-02 0.0000000000000000e+00  1.0787829937316136e+00 1.3269755568067018e-01 0.0000000000000000e+00  1.0716002542143104e+00 7.3746674149173297e-02 0.0000000000000000e+00  7.5442369339044768e-01 6.1143634302950316e-03 0.0000000000000000e+00  7.9469950563704594e-01 8.5403743280287339e-02 0.0000000000000000e+00  1.5114209980243256e+00 -1.7738364828948749e-02 0.0000000000000000e+00  1.6639251516116784e+00 1.6928542314945072e-01 0.0000000000000000e+00  1.3607571765497919e+00 -2.1230027604673164e-02 0.0000000000000000e+00  1.5038424864004216e+00 -1.5215257959833521e-02 0.0000000000000000e+00  1.6074019253054039e+00 -1.6922488366323079e-02 0.0000000000000000e+00  1.5070904355309864e+00 -1.4087950375945771e-01 0.0000000000000000e+00  1.1975156422742432e+00 -7.3930095480480504e-02 0.0000000000000000e+00  1.4047332526935250e+00 -1.3341444650486879e-02 0.0000000000000000e+00  1.1775763280795604e+00 2.3968067871774953e-02 0.0000000000000000e+00  8.0189216755895254e-01 3.5788464607620129e-03 0.0000000000000000e+00  1.5622834456695851e+00 4.3151800132903005e-02 0.0000000000000000e+00  9.4149515464913447e-01 9.3607303706678816e-02 0.0000000000000000e+00  1.4181410704525061e+00 1.6522009915867573e-02 0.0000000000000000e+00  1.2233532584494715e+00 1.6053724715810558e-01 0.0000000000000000e+00  8.6556210396222300e-01 1.0433121913787215e-03 0.0000000000000000e+00  1.1739936729758254e+00 -4.3360117338574946e-03 0.0000000000000000e+00  1.3610827584838090e+00 9.6768627649995095e-02 0.0000000000000000e+00  1.5384979174328690e+00 3.6372578324995644e-02 0.0000000000000000e+00  1.2493314968717670e+00 1.4884200230176930e-02 0.0000000000000000e+00  1.4416100381663082e+00 5.3481167671011551e-03 0.0000000000000000e+00  1.2418506901643951e+00 -4.3511384397359881e-03 0.0000000000000000e+00  1.4382231761331323e+00 -1.0085718441493606e-02 0.0000000000000000e+00  6.6415097154144043e-01 -2.3154429036209745e-03 0.0000000000000000e+00  6.2442632130948839e-01 -9.6671241072130883e-03 0.0000000000000000e+00  7.4629740689157864e-01 2.5099617680644257e-03 0.0000000000000000e+00  8.4110629136631332e-01 4.7779304206107195e-03 0.0000000000000000e+00  1.3816452147516423e+00 2.6732027849278119e-02 0.0000000000000000e+00  7.1616212527113299e-01 9.9228892579718937e-04 0.0000000000000000e+00  1.1822656481245770e+00 1.1154220160159061e-02 0.0000000000000000e+00  1.3471603200059279e+00 4.1493228798394786e-03 0.0000000000000000e+00  8.0201292902290910e-01 -4.7795938519599381e-02 0.0000000000000000e+00  8.1328486433369607e-01 4.5118772557318609e-02 0.0000000000000000e+00  1.2391128875528505e+00 -4.7935524779589775e-02 0.0000000000000000e+00  1.3300589509498706e+00 1.7572388155299309e-03 0.0000000000000000e+00  5.3853020436622001e-01 3.0726506470716967e-03 0.0000000000000000e+00  1.3407833310364272e+00 -4.4260055618840907e-03 0.0000000000000000e+00  7.5018254171086385e-01 -1.4320889278130230e-02 0.0000000000000000e+00  7.6990765382484738e-01 -5.0364306310972939e-03 0.0000000000000000e+00  7.3881518704325966e-01 -7.9183180697679517e-02 0.0000000000000000e+00  1.2065171802217396e+00 -5.6850662105983253e-02 0.0000000000000000e+00  6.4257643525963970e-01 1.9825147640933098e-03 0.0000000000000000e+00  1.5319903369677679e+00 2.3801341892778174e-02 0.0000000000000000e+00  1.5283394323494288e+00 4.7611349975263212e-01 0.0000000000000000e+00  1.0046096945970304e+00 1.8220000355277716e-01 0.0000000000000000e+00  7.5917592481745344e-01 5.8176942526202303e-03 0.0000000000000000e+00  1.3189058066772452e+00 -1.2554548798394563e-01 0.0000000000000000e+00  1.4489517036773427e+00 -5.4608928406944546e-01 0.0000000000000000e+00  6.8209427919614274e-01 9.9158904753641527e-03 0.0000000000000000e+00  7.8339168031051998e-01 1.8217666536431460e-03 0.0000000000000000e+00  1.4852123765783896e+00 7.3014319181206695e-03 0.0000000000000000e+00  3.9843245666881039e-01 5.7764829617367099e-02 0.0000000000000000e+00  1.4062539891718882e+00 1.1350787875453975e-07 0.0000000000000000e+00  1.4589524153974729e+00 -4.5733636040977861e-02 0.0000000000000000e+00  7.6756423041474575e-01 -6.3559651603793711e-03 0.0000000000000000e+00  1.4062505917474899e+00 2.7362912347036575e-08 0.0000000000000000e+00  7.4302425811766826e-01 6.6634632212717653e-03 0.0000000000000000e+00  1.8373209170505100e+00 -3.2968200149768728e-01 0.0000000000000000e+00  1.4267063543417580e+00 1.7952358948485507e-02 0.0000000000000000e+00  7.1441721603822728e-01 9.8567733810289673e-02 0.0000000000000000e+00  1.3131940264883477e+00 6.8598838813879168e-02 0.0000000000000000e+00  6.8784838433539697e-01 -9.1269422205556717e-03 0.0000000000000000e+00  5.2147609490747793e-01 -1.7844237194018266e-03 0.0000000000000000e+00  1.4016557246420964e+00 -2.1186129230163209e-05 0.0000000000000000e+00  4.8222387437000375e-01 9.7132660906874781e-04 0.0000000000000000e+00  6.5207150012277848e-01 -5.5247688931527776e-03 0.0000000000000000e+00  1.3075980914456873e+00 -4.464