<?xml version="1.0"?>
<VTKFile type="UnstructuredGrid"  version="0.1"  >
<UnstructuredGrid>
<Piece  NumberOfPoints="2426" NumberOfCells="4534">
<Points>
<DataArray  type="Float64"  NumberOfComponents="3"  format="ascii">0 0.41 0  0 0 0  2.2 0 0  2.2 0.41 0  0.2404508497187474 0.2293892626146237 0  0.25 0.2 0  0.2404508497187474 0.1706107373853764 0  0.2154508497187474 0.1524471741852423 0  0.1845491502812526 0.1524471741852423 0  0.1595491502812526 0.1706107373853764 0  0.15 0.2 0  0.1595491502812526 0.2293892626146237 0  0.1845491502812527 0.2475528258147577 0  0.2154508497187474 0.2475528258147577 0  0.5404508497187474 0.2293892626146237 0  0.55 0.2 0  0.5404508497187474 0.1706107373853764 0  0.5154508497187473 0.1524471741852423 0  0.4845491502812526 0.1524471741852423 0  0.4595491502812526 0.1706107373853764 0  0.45 0.2 0  0.4595491502812526 0.2293892626146237 0  0.4845491502812526 0.2475528258147577 0  0.5154508497187473 0.2475528258147577 0  1.1 0 0  0 0.205 0  1.1 0.41 0  0.55 0 0  0.55 0.41 0  0.275 0 0  0.275 0.41 0  1.65 0.41 0  1.65 0 0  1.375 0 0  1.375 0.41 0  1.925 0 0  1.925 0.41 0  0.8250000000000001 0.41 0  0.8250000000000001 0 0  1.5125 0.205 0  1.7875 0.205 0  0.9625000000000001 0.205 0  1.2375 0.205 0  2.2 0.205 0  0.7560964076246335 0.2151713709677419 0  1.99375 0.2152743902439024 0  2.0625 0 0  0.6875 0 0  2.0625 0.41 0  2.2 0.3075 0  0.6875 0.41 0  1.7875 0.41 0  1.375 0.1486128048780488 0  1.5125 0 0  1.7875 0 0  1.5125 0.41 0  0.9625000000000001 0 0  0.9625000000000001 0.41 0  0.4125 0 0  0.1375 0 0  0.1375 0.41 0  0.4125 0.41 0  1.2375 0 0  1.1 0.1486128048780487 0  1.2375 0.41 0  1.65 0.1486128048780487 0  1.126715909090909 0.2793064024390244 0  1.676715909090909 0.2793064024390244 0  1.348284090909091 0.2793064024390244 0  0.34375 0.3032389320646208 0  1.894702181800738 0.1282910975492754 0  2.092797818199262 0.1282910975492754 0  1.85625 0.3075 0  0.8630851210521902 0.286932093388664 0  0.89375 0.1025 0  0.35 0.1090282786671641 0  0 0.3075 0  0 0.1025 0  0.6526217841291382 0.288229645480046 0  0.7562500000000001 0.09660248895515888 0  0.6568633732316684 0.1557582854763441 0  2.099172119769978 0.25625 0  1.002356446954348 0.1010393851523063 0  1.99375 0.08395950269330846 0  1.459960956013612 0.3075 0  1.569025960719943 0.2986889805672169 0  1.03125 0.3278689922742084 0  0.75625 0.3247156761655783 0  1.959375 0.3126371951219512 0  1.749222215368287 0.1025 0  1.275777784631713 0.1025 0  2.2 0.1025 0  1.225938124459196 0.3075 0  1.550777784631713 0.1025 0  1.44375 0.07430640243902442 0  1.16875 0.07430640243902437 0  0.3528655045338512 0.2063263890916129 0  0.5890337614812103 0.08775733857679162 0  0.8504912436891263 0.190072835691683 0  1.899250267340833 0.2229966846119207 0  0.1020898364287272 0.3140258291809757 0  1.766482954545455 0.2934032012195123 0  1.051658316544432 0.2265720188842194 0  0.2 0.3400647632937836 0  1.421109702350723 0.2261157654379721 0  0.4812500000000001 0.41 0  0.4324401666997539 0.3216425986889796 0  0.098916018031319 0.09171660955420841 0  0.9508742791313441 0.2921736960864468 0  2.13125 0 0  2.118919042110979 0.3422084711244843 0  1.30625 0.41 0  0.20625 0 0  1.597888256393107 0.2173787389261347 0  0.4812500000000001 0 0  0.4324082967851086 0.08384041677422771 0  1.829299675393195 0.07400700849299596 0  0.568219932524165 0.3212274660843853 0  1.71875 0.41 0  0.268005226542646 0.08512186835670006 0  1.16875 0.41 0  2.038220665644273 0.332420740103091 0  0.6678017527842831 0.07701763866051195 0  0.89375 0.41 0  0.5111435174287687 0.07335351331957608 0  0.176193934632343 0.0734896648625108 0  0.07390688010811153 0.1697064032433452 0  0.05452951551825875 0.25625 0  0.61875 0.41 0  1.452769549894695 0.1548122580621249 0  1.369219062229598 0.07430640243902442 0  1.30625 0 0  1.720943423819132 0.1714577452753128 0  1.157188124459196 0.205 0  1.094219062229598 0.07430640243902437 0  1.304056576180868 0.1714577452753128 0  1.67579304192913 0.07430640243902437 0  0.2672907219039591 0.3037570723459566 0  1.209670467133757 0.1362100266964769 0  1.58125 0 0  1.03125 0 0  0.06875000000000001 0.41 0  0 0.35875 0  1.58125 0.41 0  1.631724228912893 0.3381867502687533 0  0.8240147050827157 0.1225233169495944 0  1.825608881788174 0.14499488549201 0  1.85625 0 0  1.44375 0 0  1.44375 0.41 0  1.85625 0.41 0  2.13125 0.41 0  0.7562500000000001 0.41 0  0.7562500000000001 0 0  0.89375 0 0  0.34375 0 0  0.34375 0.41 0  0.20625 0.41 0  0.06875000000000001 0 0  1.16875 0 0  1.03125 0.41 0  0.61875 0 0  1.71875 0 0  1.99375 0 0  1.99375 0.41 0  0.3972301426712326 0.2593842555611471 0  1.340625 0.3489494290853124 0  1.134375 0.3489494290853123 0  1.700180620188976 0.3438659752031281 0  0.5003922072260507 0.341765274319271 0  0.6212513815748759 0.2209216137134851 0  0.6885607720119526 0.215393731583638 0  1.033412357328477 0.1612902025713047 0  2.135782184673599 0.07126652247502523 0  1.668441847249787 0.2129203728327609 0  1.295782514339747 0.2378437748815763 0  1.409375 0.3520314716057996 0  2.129248544730567 0.1906135162504124 0  2.060771381434487 0.1989445750470348 0  2.013252586573865 0.1496169464686054 0  1.942766402200229 0.1734448904596831 0  1.895522487186454 0.06076163953489683 0  2.069553871656643 0.06605731020975725 0  0.9281250000000001 0.3539050257418612 0  1.274680914880868 0.3520219391081363 0  0.3030138498135347 0.2488370856812789 0  0.8223773249563684 0.341761430177996 0  0.9018164060227267 0.2326477848736739 0  0.8143027982392851 0.2440265179987191 0  0.7225087161029304 0.2699907246386231 0  1.614713220494657 0.09473434380863296 0  0.378125 0.3566194660323104 0  0.309375 0.3566194660323104 0  1.72990325744076 0.2380068107952482 0  0.6915936999299305 0.3429472631234433 0  0.6268087624932918 0.3466455500035671 0  1.356580098625191 0.2120393231351682 0  0.3060160055995138 0.1590148921620778 0  0.3954648733249218 0.156380553890791 0  2.034370752044885 0.2668681600792073 0  1.51768709249349 0.3426260931494756 0  1.561883724969884 0.1650446847858835 0  1.197344062229598 0.2523725417393646 0  0.9281250000000001 0.05124999999999999 0  1.804085235518364 0.3468178408964637 0  1.817887819205233 0.2589243285818559 0  0.9107805776841645 0.1653834539923287 0  1.905897727272727 0.3485060975609756 0  0 0.05125 0  0.844212276491354 0.0614201194265309 0  0.378125 0.05244637078450034 0  1.008571329007178 0.2705955969954818 0  0.7724048032149464 0.1559079561351474 0  0.7203054377831548 0.04941826955193545 0  1.192836486056382 0.3562350748565544 0  0.5967108020713719 0.1479294686523888 0  1.28257088594801 0.2944411014911587 0  0.7041890234548132 0.1222025174424443 0  1.474860187679412 0.2504218616229368 0  1.406767003493824 0.2829282258560709 0  0.3201325899091991 0.05890121548989159 0  0.5979220912872258 0.2727591995766724 0  1.845656689180403 0.1998310418452388 0  2.144958525570388 0.2909790873294231 0  2.2 0.15375 0  1.57794966442982 0.3540357145964566 0  0.9483181579620558 0.1214693369582054 0  0.0496154796471391 0.333125 0  1.508991196088596 0.1421783375065625 0  0.09776612425612034 0.2204896805326566 0  1.50436820029908 0.06143401634903343 0  1.223857000523521 0.0823554862453532 0  0.2531953886959507 0.3582003209055908 0  1.153316824384777 0.1289850171317837 0  2.148922302309752 0.1258841779285271 0  1.621993280276081 0.2841214267927899 0  1.550118654119087 0.2461998729100966 0  1.327182649291491 0.1216967252533594 0  1.753125 0.04556020050186112 0  1.271875 0.04556020050186116 0  0.9824282234771738 0.05051969257615314 0  1.039510847866381 0.05683351822678641 0  1.94956388244759 0.1180512551534177 0  1.949997712993411 0.04965831614304109 0  1.771961817615021 0.1530278789497521 0  1.909246823951428 0.2812757146784527 0  1.101974016627944 0.2038045618205013 0  0.7906250000000001 0.0444674049654372 0  1.948575539857022 0.2445328248721197 0  1.697271520964565 0.1233917627620729 0  1.065625 0.3689344961371042 0  1.085849084308977 0.3170853572226867 0  0.9840604787624379 0.3582077516409966 0  1.577403511714593 0.05463601888079143 0  0.05622663515370135 0.05493816910862376 0  0.8762396958822678 0.3392249777398821 0  1.751571320346033 0.3651102912045228 0  1.055327852410105 0.111864799513911 0  0.1583785085108421 0.2994699345738728 0  0.1455283439499995 0.3542795598723423 0  2.2 0.35875 0  0.225705107073232 0.05084786997482401 0  0.1455852234589313 0.1166494778469164 0  1.466879772203159 0.3611261772912453 0  1.990280163552011 0.3564754268533217 0  1.17471064520912 0.2990917256188288 0  0.7221925551074015 0.1739659241003985 0  0 0.25625 0  2.2 0.25625 0  2.2 0.05125 0  0 0.15375 0  1.853978576207987 0.35875 0  0.21965520498276 0.1015543880164422 0  1.515638456102889 0.2882700110184686 0  0.09048297387599738 0.3637717362208066 0  2.150453692751374 0.2387066338105111 0  1.323782677156475 0.04897634338873398 0  1.409375 0.03715320121951221 0  1.406484531114799 0.1087852750766809 0  1.134375 0.03715320121951218 0  1.627401732573545 0.04552157221025036 0  0.446875 0.3713289093361426 0  2.045405893604797 0.1105340662939892 0  1.255408269734577 0.1577307500159216 0  2.028125 0.03707597992059326 0  0.04420832937638274 0.128125 0  0.5817551710628505 0.3702615006034757 0  0.1197849154434487 0.2663398672460083 0  1.248258025468107 0.2565907092181813 0  0.1300647302703173 0.0508462728378621 0  0.7738123537510222 0.2761231499240648 0  1.203125 0.0366132337404304 0  0.5444207041612499 0.111205399508622 0  0.8016457771828226 0.1964238426015905 0  2.072662025974815 0.2975086504196739 0  0.4019040438866802 0.2103993403217561 0  0.4677372330974851 0.04827477407630658 0  0.8677218578847617 0.1432970430140788 0  1.058011122005847 0.2758866204059919 0  0.4429405887974043 0.2746184809910084 0  0.5843750000000001 0.03726989681835222 0  0.6318596133730142 0.1128692182767254 0  0.4862628454464408 0.2957029785303028 0  0.7805186758662764 0.3673578380827891 0  1.887722846421017 0.1760882698830035 0  0.3498893058880703 0.256189258793856 0  1.472640588990488 0.1118278026240017 0  1.865937103925594 0.2604137786483804 0
[...]
<PointData  Vectors="f_37"> 
<DataArray  type="Float64"  Name="f_37"  NumberOfComponents="3" format="ascii">-4.6669262635578968e-07 7.4702293599181691e-08 0.0000000000000000e+00  3.3237536859364727e-07 -9.6883056804227634e-08 0.0000000000000000e+00  -1.9884529520917499e-07 -3.4377522580659335e-08 0.0000000000000000e+00  1.1455329019805153e-06 -2.0023389979212543e-08 0.0000000000000000e+00  -1.2720640064171105e-05 -1.3429416324131493e-06 0.0000000000000000e+00  -2.3037337088386928e-05 -1.5541575434570214e-06 0.0000000000000000e+00  -1.5706228851483501e-05 2.3398769488247086e-06 0.0000000000000000e+00  3.2485847302095339e-06 -8.7891516040273192e-06 0.0000000000000000e+00  -6.1515612003521289e-06 -9.5347230795089464e-06 0.0000000000000000e+00  -4.0567321312103355e-06 4.6190284328052801e-07 0.0000000000000000e+00  -1.9160159464527222e-06 2.0554521989898551e-08 0.0000000000000000e+00  -9.0902844768154861e-06 2.6957144213457927e-06 0.0000000000000000e+00  -1.6650776619058950e-05 3.7726964324225603e-06 0.0000000000000000e+00  -2.6213948594980665e-06 8.9322817688189741e-06 0.0000000000000000e+00  -8.8339845090688833e-06 -5.6258499412043664e-06 0.0000000000000000e+00  -6.4414312983677051e-06 -3.1064007444707599e-06 0.0000000000000000e+00  -4.3056974096682170e-06 1.5943070105316018e-06 0.0000000000000000e+00  1.2576453722738628e-05 -1.2924123413374963e-05 0.0000000000000000e+00  8.4279138273742307e-06 -5.3924164781150063e-05 0.0000000000000000e+00  -7.4075383682654724e-05 4.8136960090061877e-05 0.0000000000000000e+00  -6.4942576757474560e-05 -4.6173627555064416e-06 0.0000000000000000e+00  -7.4106667328922358e-05 -1.6688192414994169e-05 0.0000000000000000e+00  9.9361461226232052e-06 3.0906792223468195e-05 0.0000000000000000e+00  1.8412582194400690e-05 3.3568979955727487e-05 0.0000000000000000e+00  -9.9413964335493842e-07 -7.1972801856210746e-08 0.0000000000000000e+00  1.5000026555043435e+00 -2.1383636395167397e-07 0.0000000000000000e+00  -2.1611884154141997e-06 -4.3999317516435006e-09 0.0000000000000000e+00  -7.3362150221614790e-06 -5.8066552083438947e-07 0.0000000000000000e+00  -6.4531356874074555e-06 4.1467384626336512e-07 0.0000000000000000e+00  1.4641502173838312e-05 -1.0726940860942367e-06 0.0000000000000000e+00  1.5375559605960022e-05 1.9258743744351819e-06 0.0000000000000000e+00  7.8341292442879165e-07 -4.9327912753329223e-09 0.0000000000000000e+00  3.8243691642597034e-07 -3.0112309049782119e-08 0.0000000000000000e+00  3.8920381596197810e-06 -4.9926429069660613e-08 0.0000000000000000e+00  2.2494467709709963e-06 -2.3086491939169181e-08 0.0000000000000000e+00  1.0758105825362722e-06 5.2519465268191292e-08 0.0000000000000000e+00  -1.0101533717139112e-06 -5.0880417635075698e-08 0.0000000000000000e+00  -5.0822412632477289e-06 7.4580060652954938e-08 0.0000000000000000e+00  -1.0070320235424916e-05 -7.3103710487942432e-08 0.0000000000000000e+00  1.0967001286852707e+00 1.4468306811153663e-05 0.0000000000000000e+00  1.0966785865908153e+00 -4.0277993495095722e-05 0.0000000000000000e+00  1.0958837205208931e+00 -2.8920407834142729e-03 0.0000000000000000e+00  1.0967022341383519e+00 -2.3296388123767437e-04 0.0000000000000000e+00  1.0965984758507836e+00 1.0757611794486216e-04 0.0000000000000000e+00  9.2173253353748141e-01 -8.0801813519553706e-02 0.0000000000000000e+00  1.0966599772346888e+00 1.6536871559952231e-06 0.0000000000000000e+00  -3.9985068097508468e-06 3.4578577119328039e-08 0.0000000000000000e+00  8.3468646082668450e-07 -1.8434747857739604e-07 0.0000000000000000e+00  -2.1631669520251445e-06 -8.7418374060013544e-08 0.0000000000000000e+00  1.0964122857052270e+00 3.3516530691057189e-04 0.0000000000000000e+00  2.2318172600747988e-06 3.6531349677122155e-08 0.0000000000000000e+00  -2.7792417357909931e-07 1.0880455154729399e-07 0.0000000000000000e+00  1.0967282785191044e+00 2.2872506994626695e-05 0.0000000000000000e+00  4.5811109727248201e-06 -1.0286763899772572e-08 0.0000000000000000e+00  -2.7332973513027702e-07 -5.0350504578845964e-08 0.0000000000000000e+00  9.1465331272636458e-07 -4.8389861954912603e-08 0.0000000000000000e+00  -4.1984113063536079e-06 1.3519871423894290e-07 0.0000000000000000e+00  -9.9029134033412909e-07 -5.2094357116203697e-08 0.0000000000000000e+00  -6.7132603089487440e-06 -8.0977113777812404e-07 0.0000000000000000e+00  7.4385882480393624e-07 -1.3977867061481954e-08 0.0000000000000000e+00  6.0211624071888974e-07 4.7020568571410642e-07 0.0000000000000000e+00  -1.0965727285671763e-05 4.7345635292801783e-07 0.0000000000000000e+00  1.3595028356249296e-06 -1.7679871801804876e-09 0.0000000000000000e+00  1.0964358199844522e+00 -6.6950673374389013e-04 0.0000000000000000e+00  -8.7660314516462263e-07 -7.8957446750268009e-08 0.0000000000000000e+00  1.0966569663030932e+00 -1.1041506614036132e-05 0.0000000000000000e+00  1.0971443922611956e+00 -3.5344780114002656e-04 0.0000000000000000e+00  1.0966331541160874e+00 -2.6598144062702745e-05 0.0000000000000000e+00  1.0968664317079388e+00 -3.8918083971427057e-05 0.0000000000000000e+00  1.8416206149609931e+00 -1.6139136202871543e-01 0.0000000000000000e+00  1.0966910395722089e+00 -8.1029518601481447e-05 0.0000000000000000e+00  1.0966027305933412e+00 3.9138019886000382e-05 0.0000000000000000e+00  1.0966506610390399e+00 1.5840873975819030e-04 0.0000000000000000e+00  1.1081760709774613e+00 -1.9355051636187455e-02 0.0000000000000000e+00  1.0992301920279743e+00 1.6124421727670894e-03 0.0000000000000000e+00  1.8220624324476304e+00 2.9067842215590617e-01 0.0000000000000000e+00  1.1249986314816691e+00 9.2843807376866103e-08 0.0000000000000000e+00  1.1250033026039181e+00 -4.5047574373266736e-07 0.0000000000000000e+00  1.4372882196209187e+00 -3.0232935897900265e-01 0.0000000000000000e+00  1.1823552233613224e+00 9.2212001678858319e-02 0.0000000000000000e+00  9.4120707735883646e-01 4.3522433508591557e-01 0.0000000000000000e+00  1.0967333787871236e+00 4.8340638728146499e-05 0.0000000000000000e+00  1.0954943586720540e+00 -1.2938543607081212e-03 0.0000000000000000e+00  1.0961202300694020e+00 9.7493637607193006e-05 0.0000000000000000e+00  1.0966839487436615e+00 1.9165160788454461e-04 0.0000000000000000e+00  1.0964629598264275e+00 5.9755432773681671e-05 0.0000000000000000e+00  1.0981377673040693e+00 -9.5960522124292826e-05 0.0000000000000000e+00  1.2096623950826793e+00 -7.6142694233284028e-02 0.0000000000000000e+00  1.0966062734174524e+00 3.0453229858702260e-05 0.0000000000000000e+00  1.0960404187294432e+00 -1.4633747240744272e-04 0.0000000000000000e+00  1.0964597669006384e+00 -2.8424574964382946e-04 0.0000000000000000e+00  1.0962058590342785e+00 -5.9843348302342374e-05 0.0000000000000000e+00  1.0968169057927200e+00 -1.9666583420483702e-04 0.0000000000000000e+00  1.0964130128885510e+00 -3.7687703409933775e-05 0.0000000000000000e+00  1.0952833780542532e+00 -1.6823522159330962e-04 0.0000000000000000e+00  1.0942190508462659e+00 -3.6333954934968023e-04 0.0000000000000000e+00  -5.0581230857644088e-01 -5.7914836121553168e-02 0.0000000000000000e+00  1.5657296369879212e+00 1.0925253098715305e-01 0.0000000000000000e+00  1.0760945221873552e+00 -1.4973698579086277e-03 0.0000000000000000e+00  1.0966808689026764e+00 1.1294338119482669e-05 0.0000000000000000e+00  1.1812056264543185e+00 2.5136609744470623e-01 0.0000000000000000e+00  1.0967177949233691e+00 -1.0186022009047540e-04 0.0000000000000000e+00  1.0970272848751608e+00 -1.1919208201149954e-03 0.0000000000000000e+00  1.3828258091801389e+00 1.9923650488733410e-01 0.0000000000000000e+00  1.0967497566527278e+00 3.4612455158499459e-05 0.0000000000000000e+00  -8.7139303688970500e-06 1.3357638129327599e-06 0.0000000000000000e+00  1.4133268768481619e+00 4.8719273370498660e-02 0.0000000000000000e+00  1.1439544972936320e+00 -2.5393375466893631e-01 0.0000000000000000e+00  1.1006871020949465e+00 -3.4927898497184536e-03 0.0000000000000000e+00  -1.5181380027804963e-06 1.7536286431348039e-08 0.0000000000000000e+00  1.0928020123168896e+00 -9.9073266513852916e-05 0.0000000000000000e+00  -2.6831246255247603e-06 4.9832168120990332e-08 0.0000000000000000e+00  2.5799231660541331e-06 -2.4311304946385631e-06 0.0000000000000000e+00  1.0966535549552445e+00 1.5649116003048274e-05 0.0000000000000000e+00  -1.0498971982963503e-05 -1.5749941176859041e-06 0.0000000000000000e+00  1.3908810368395803e+00 -4.9149787607418678e-02 0.0000000000000000e+00  1.0950887829729223e+00 -6.6993844656356943e-05 0.0000000000000000e+00  1.5661449306531681e+00 -5.6815519684639333e-02 0.0000000000000000e+00  -5.0242232377808395e-06 -1.3040746521108646e-07 0.0000000000000000e+00  1.8045888507550900e+00 -9.6951657553246112e-02 0.0000000000000000e+00  -1.9338647915214107e-06 1.4416307616152551e-08 0.0000000000000000e+00  1.0955674687810746e+00 2.1045141825671145e-04 0.0000000000000000e+00  1.3979596291336829e+00 1.7945322433220473e-01 0.0000000000000000e+00  -6.1045248010921515e-06 -3.6769471820920421e-08 0.0000000000000000e+00  1.5218171125001010e+00 -6.7381113396935144e-02 0.0000000000000000e+00  1.3624728927473151e+00 -2.8825859009510796e-01 0.0000000000000000e+00  1.3407320559220091e+00 -1.2342750933445422e-01 0.0000000000000000e+00  1.3730471609297927e+00 1.2320995215324620e-01 0.0000000000000000e+00  4.9327961436767578e-07 -3.9543472607634089e-07 0.0000000000000000e+00  1.0967629303506115e+00 1.2410505869744621e-05 0.0000000000000000e+00  1.0939000866772881e+00 1.7159829654650604e-04 0.0000000000000000e+00  1.8390931834926439e-06 5.8108385130130962e-08 0.0000000000000000e+00  1.0966245815963460e+00 -4.2006958358324845e-05 0.0000000000000000e+00  1.0967529268506657e+00 -4.4435703343995110e-04 0.0000000000000000e+00  1.0944089925610339e+00 -2.1891675403598403e-04 0.0000000000000000e+00  1.0966688639779518e+00 -1.1690733198590582e-04 0.0000000000000000e+00  1.0944675756344910e+00 -3.2213887687535192e-04 0.0000000000000000e+00  1.9360898140169436e+00 1.4063668184901174e-01 0.0000000000000000e+00  1.0965703576104804e+00 -2.5270438433690732e-04 0.0000000000000000e+00  5.4538368151740971e-06 -8.4171918134224336e-08 0.0000000000000000e+00  -3.9905891760821292e-07 1.2517333140956689e-07 0.0000000000000000e+00  -1.5318040909794213e-06 -6.7647346991835122e-07 0.0000000000000000e+00  6.5625217620031850e-01 1.2489758350787077e-07 0.0000000000000000e+00  -2.2291030058743465e-06 -3.6928866819644656e-08 0.0000000000000000e+00  1.0939490342407918e+00 5.7600055632255032e-05 0.0000000000000000e+00  1.1019905153368035e+00 2.9361831793854012e-02 0.0000000000000000e+00  1.0967066860122920e+00 7.9978771006350736e-06 0.0000000000000000e+00  -4.4246176592733199e-07 1.9751172874959966e-08 0.0000000000000000e+00  -6.0002145308013437e-06 3.1214499240157314e-08 0.0000000000000000e+00  6.5989611154932225e-07 -7.5399700617878980e-08 0.0000000000000000e+00  -2.5143489094880901e-06 1.9519142203498868e-08 0.0000000000000000e+00  -1.3538956507922019e-06 1.0091738122720709e-07 0.0000000000000000e+00  -4.9201130660022687e-06 -1.7999537511350374e-07 0.0000000000000000e+00  -8.0094960458767961e-06 8.0411570496171090e-08 0.0000000000000000e+00  -3.0227285882854105e-06 -5.6577546794365702e-08 0.0000000000000000e+00  4.5467690932215853e-06 4.2420871228839738e-06 0.0000000000000000e+00  5.4016843104052175e-06 -4.7849756108429945e-06 0.0000000000000000e+00  8.8727588076590028e-06 3.1934318880955786e-06 0.0000000000000000e+00  -1.7725548577342596e-06 7.9605117363763550e-07 0.0000000000000000e+00  8.2871419822974439e-07 1.0661112597861366e-07 0.0000000000000000e+00  -1.7943822755155554e-06 -3.4566868191527032e-08 0.0000000000000000e+00  -5.0155288720878121e-07 1.2762796562170554e-06 0.0000000000000000e+00  -3.2334764594780678e-06 -3.5361118179329950e-08 0.0000000000000000e+00  -1.2691590237985553e-06 -7.4895621599225001e-08 0.0000000000000000e+00  -6.5596822904444687e-06 2.8582011106637475e-08 0.0000000000000000e+00  1.0547567533654396e+00 -3.4140035488295872e-01 0.0000000000000000e+00  1.0858407726499510e+00 3.0370528098107915e-04 0.0000000000000000e+00  1.0877186207946306e+00 3.5650100753146260e-04 0.0000000000000000e+00  1.0913085082572151e+00 2.3272127191648679e-05 0.0000000000000000e+00  1.4959446326239811e+00 5.0991163569731796e-02 0.0000000000000000e+00  -6.4600074405168170e-02 -1.3478607650667102e-01 0.0000000000000000e+00  4.2996340304232816e-01 -1.9833335146634656e-01 0.0000000000000000e+00  1.0962679110636309e+00 -1.2560666017108928e-03 0.0000000000000000e+00  1.0936291060695045e+00 -2.9024189224481460e-04 0.0000000000000000e+00  1.0966711427640845e+00 -3.0743277523903625e-05 0.0000000000000000e+00  1.0968099393998647e+00 -1.5397022321674727e-04 0.0000000000000000e+00  1.0838209493487536e+00 3.9690712045480894e-04 0.0000000000000000e+00  1.0966361831888107e+00 5.0489646094223509e-05 0.0000000000000000e+00  1.0966288086839799e+00 2.8271086655024496e-05 0.0000000000000000e+00  1.0966247350093030e+00 2.6497744997671569e-05 0.0000000000000000e+00  1.0966770660795508e+00 -1.9625149203244685e-05 0.0000000000000000e+00  1.0863139244510409e+00 -4.7407321223476019e-04 0.0000000000000000e+00  1.0910459350189241e+00 -1.6413774998389242e-04 0.0000000000000000e+00  1.0859519977427479e+00 1.2094271261151091e-03 0.0000000000000000e+00  1.0841835711936789e+00 -1.7419445380116328e-04 0.0000000000000000e+00  5.6822866387702398e-01 1.2482707253861972e-01 0.0000000000000000e+00  1.1375321250500701e+00 -8.6331839921659111e-03 0.0000000000000000e+00  1.0940014086204426e+00 -8.6346462426412033e-03 0.0000000000000000e+00  1.0755017664176592e+00 -4.6999011140634234e-02 0.0000000000000000e+00  1.1563475134877119e+00 -2.2580162685786251e-01 0.0000000000000000e+00  1.0964040391453889e+00 -3.6043974856304527e-05 0.0000000000000000e+00  1.3452159344747012e+00 2.7231051644966971e-02 0.0000000000000000e+00  1.3731020509399112e+00 2.0721863231157440e-02 0.0000000000000000e+00  1.0966859343038289e+00 -4.6855382046104948e-05 0.0000000000000000e+00  1.3378814648667205e+00 -1.1898018492174353e-01 0.0000000000000000e+00  1.4584712799767958e+00 -1.2449541507547496e-01 0.0000000000000000e+00  1.0967622451920420e+00 -4.2463493206003873e-05 0.0000000000000000e+00  3.2750242448020872e-01 -1.0969601583153332e-01 0.0000000000000000e+00  6.6897256386227844e-01 3.7120827835582232e-01 0.0000000000000000e+00  1.0967459326363038e+00 1.0473165968028981e-05 0.0000000000000000e+00  1.0919363639337412e+00 4.7759341747145872e-04 0.0000000000000000e+00  1.0966332195537021e+00 1.3045078560649129e-05 0.0000000000000000e+00  1.0968557527356753e+00 -2.8973969838834462e-04 0.0000000000000000e+00  1.0659680969906580e+00 -3.7097838682487068e-03 0.0000000000000000e+00  1.0905552707017898e+00 -4.1066319846193099e-04 0.0000000000000000e+00  1.0966815885851688e+00 -2.2209432474618902e-05 0.0000000000000000e+00  1.0928840385223246e+00 -4.1636098588277370e-04 0.0000000000000000e+00  1.0876668947847563e+00 4.4435935098256822e-04 0.0000000000000000e+00  6.5624925538992707e-01 -3.9126520703414371e-08 0.0000000000000000e+00  1.1034817453455623e+00 -3.9129795834986552e-03 0.0000000000000000e+00  1.3603053586406200e+00 -9.2026583196865921e-03 0.0000000000000000e+00  1.0982451020317863e+00 -1.7028132427553289e-03 0.0000000000000000e+00  1.0448745623056050e+00 9.4861556830457425e-02 0.0000000000000000e+00  1.2024266002427604e+00 5.9393133235243888e-02 0.0000000000000000e+00  1.0764891200109488e+00 -3.4278618105282110e-04 0.0000000000000000e+00  8.4467224341548242e-01 5.6837802272218893e-02 0.0000000000000000e+00  1.0967860819055606e+00 -1.7791498181561792e-04 0.0000000000000000e+00  1.2189581464901085e+00 2.5609973650191825e-01 0.0000000000000000e+00  1.0966944874317606e+00 8.0148837807751756e-05 0.0000000000000000e+00  1.0967980892216969e+00 9.5497140122597360e-05 0.0000000000000000e+00  1.4872188118936509e+00 2.0425971058400823e-02 0.0000000000000000e+00  1.5725829629575394e+00 -1.7317275367718502e-01 0.0000000000000000e+00  1.0966679528045589e+00 -5.5752230349293306e-06 0.0000000000000000e+00  1.0968381291703486e+00 1.5254831157616506e-04 0.0000000000000000e+00  1.0966974703400989e+00 9.6119622230056304e-05 0.0000000000000000e+00  1.0811594101843793e+00 -1.9543468943684667e-04 0.0000000000000000e+00  1.0959438061557698e+00 -9.2691915740104099e-04 0.0000000000000000e+00  9.4105172527635739e-01 9.2660300539805715e-02 0.0000000000000000e+00  1.0966597057002088e+00 -1.3614484298653283e-05 0.0000000000000000e+00  1.2241441040282177e+00 1.5853798519292520e-01 0.0000000000000000e+00  1.0889525661116743e+00 -3.5317281468386986e-04 0.0000000000000000e+00  1.0955800127536812e+00 -7.3265328284211742e-05 0.0000000000000000e+00  1.3342068104236902e+00 7.7778736158186285e-02 0.0000000000000000e+00  1.0964537659661822e+00 -4.1654184221411196e-04 0.0000000000000000e+00  1.0965922813470050e+00 4.8057464111331886e-06 0.0000000000000000e+00  1.0966427932657314e+00 -2.0614554815026156e-05 0.0000000000000000e+00  1.0966086093595364e+00 3.7149609925945869e-05 0.0000000000000000e+00  1.0964942213022335e+00 -3.7361841851218351e-05 0.0000000000000000e+00  1.0466429059402507e+00 -6.9455937690180743e-05 0.0000000000000000e+00  1.0462114953560202e+00 -1.0693108861424066e-03 0.0000000000000000e+00  1.0633953663764943e+00 -2.4273941483425234e-03 0.0000000000000000e+00  1.0801432308929053e+00 -5.5122870968759825e-04 0.0000000000000000e+00  1.0965941829585624e+00 -5.8735652539924878e-05 0.0000000000000000e+00  1.0607045802983532e+00 -8.6673296593932705e-04 0.0000000000000000e+00  1.0966387227819003e+00 -2.3413680762385914e-06 0.0000000000000000e+00  1.0967311556846628e+00 7.1937826628019262e-05 0.0000000000000000e+00  1.0967871066593686e+00 -7.3356916738270069e-04 0.0000000000000000e+00  1.0593517793466254e+00 -8.4215292355166414e-03 0.0000000000000000e+00  1.0966481422246490e+00 8.0989045478526608e-06 0.0000000000000000e+00  1.0965646276966603e+00 -7.8819232619804528e-05 0.0000000000000000e+00  1.0176506730162167e+00 5.6121904105074370e-04 0.0000000000000000e+00  1.0973542826580107e+00 -4.5523681137840593e-05 0.0000000000000000e+00  1.0741950267595584e+00 6.6492667943316211e-04 0.0000000000000000e+00  1.0764922549597584e+00 3.8925551326896360e-04 0.0000000000000000e+00  7.3823022895393930e-01 -7.9239237422431913e-02 0.0000000000000000e+00  1.1116475056138031e+00 -1.7070637658490478e-03 0.0000000000000000e+00  1.0421522309566307e+00 -5.1138251212525291e-04 0.0000000000000000e+00  1.0959455819218005e+00 -7.9014755444581537e-04 0.0000000000000000e+00  1.5310222315124922e+00 4.6683781796756496e-01 0.0000000000000000e+00  1.0058624593286480e+00 1.7125447387090589e-01 0.0000000000000000e+00  1.0682004210617142e+00 1.5974513192927855e-03 0.0000000000000000e+00  1.3160658727665595e+00 -1.0450418472864793e-01 0.0000000000000000e+00  1.4531195384832276e+00 -5.4031106659166306e-01 0.0000000000000000e+00  1.0609030160477106e+00 8.5386747585748407e-04 0.0000000000000000e+00  1.0759101281477881e+00 -1.4729906945837719e-04 0.0000000000000000e+00  1.0968973883689370e+00 -1.9213813542119038e-04 0.0000000000000000e+00  8.3352047016872921e-01 1.9616167843632218e-01 0.0000000000000000e+00  1.4062544824330265e+00 2.1267800454971224e-07 0.0000000000000000e+00  1.0966562646680469e+00 9.5530170180185931e-05 0.0000000000000000e+00  1.0688345932857375e+00 -1.6382404676942338e-03 0.0000000000000000e+00  1.4062508377182714e+00 -4.4799046553823514e-07 0.0000000000000000e+00  1.0696561688165527e+00 5.2266676142039058e-04 0.0000000000000000e+00  1.8483298912993786e+00 -3.0698779909531249e-01 0.0000000000000000e+00  1.0966436474515067e+00 9.3494947027115226e-05 0.0000000000000000e+00  7.1238436458339927e-01 9.5795081152443548e-02 0.0000000000000000e+00  1.0966688987700288e+00 9.1895021072698288e-05 0.0000000000000000e+00  1.0607870536662303e+00 -2.6686835449459142e-04 0.0000000000000000e+00  9.8421348539045161e-01 1.4079571105941522e-04 0.0000000000000000e+00  1.0967692639267668e+00 6.4380050999511082e-05 0.0000000000000000e+00  9.8561736930018828e-01 -7.3704513877080548e-04 0.0000000000000000e+00  1.0454533054705708e+00 -4.1190514536596352e-04 0.0000000000000000e+00  1.33