<?xml version="1.0"?>
<VTKFile type="UnstructuredGrid"  version="0.1"  >
<UnstructuredGrid>
<Piece  NumberOfPoints="2426" NumberOfCells="4534">
<Points>
<DataArray  type="Float64"  NumberOfComponents="3"  format="ascii">0 0.41 0  0 0 0  2.2 0 0  2.2 0.41 0  0.2404508497187474 0.2293892626146237 0  0.25 0.2 0  0.2404508497187474 0.1706107373853764 0  0.2154508497187474 0.1524471741852423 0  0.1845491502812526 0.1524471741852423 0  0.1595491502812526 0.1706107373853764 0  0.15 0.2 0  0.1595491502812526 0.2293892626146237 0  0.1845491502812527 0.2475528258147577 0  0.2154508497187474 0.2475528258147577 0  0.5404508497187474 0.2293892626146237 0  0.55 0.2 0  0.5404508497187474 0.1706107373853764 0  0.5154508497187473 0.1524471741852423 0  0.4845491502812526 0.1524471741852423 0  0.4595491502812526 0.1706107373853764 0  0.45 0.2 0  0.4595491502812526 0.2293892626146237 0  0.4845491502812526 0.2475528258147577 0  0.5154508497187473 0.2475528258147577 0  1.1 0 0  0 0.205 0  1.1 0.41 0  0.55 0 0  0.55 0.41 0  0.275 0 0  0.275 0.41 0  1.65 0.41 0  1.65 0 0  1.375 0 0  1.375 0.41 0  1.925 0 0  1.925 0.41 0  0.8250000000000001 0.41 0  0.8250000000000001 0 0  1.5125 0.205 0  1.7875 0.205 0  0.9625000000000001 0.205 0  1.2375 0.205 0  2.2 0.205 0  0.7560964076246335 0.2151713709677419 0  1.99375 0.2152743902439024 0  2.0625 0 0  0.6875 0 0  2.0625 0.41 0  2.2 0.3075 0  0.6875 0.41 0  1.7875 0.41 0  1.375 0.1486128048780488 0  1.5125 0 0  1.7875 0 0  1.5125 0.41 0  0.9625000000000001 0 0  0.9625000000000001 0.41 0  0.4125 0 0  0.1375 0 0  0.1375 0.41 0  0.4125 0.41 0  1.2375 0 0  1.1 0.1486128048780487 0  1.2375 0.41 0  1.65 0.1486128048780487 0  1.126715909090909 0.2793064024390244 0  1.676715909090909 0.2793064024390244 0  1.348284090909091 0.2793064024390244 0  0.34375 0.3032389320646208 0  1.894702181800738 0.1282910975492754 0  2.092797818199262 0.1282910975492754 0  1.85625 0.3075 0  0.8630851210521902 0.286932093388664 0  0.89375 0.1025 0  0.35 0.1090282786671641 0  0 0.3075 0  0 0.1025 0  0.6526217841291382 0.288229645480046 0  0.7562500000000001 0.09660248895515888 0  0.6568633732316684 0.1557582854763441 0  2.099172119769978 0.25625 0  1.002356446954348 0.1010393851523063 0  1.99375 0.08395950269330846 0  1.459960956013612 0.3075 0  1.569025960719943 0.2986889805672169 0  1.03125 0.3278689922742084 0  0.75625 0.3247156761655783 0  1.959375 0.3126371951219512 0  1.749222215368287 0.1025 0  1.275777784631713 0.1025 0  2.2 0.1025 0  1.225938124459196 0.3075 0  1.550777784631713 0.1025 0  1.44375 0.07430640243902442 0  1.16875 0.07430640243902437 0  0.3528655045338512 0.2063263890916129 0  0.5890337614812103 0.08775733857679162 0  0.8504912436891263 0.190072835691683 0  1.899250267340833 0.2229966846119207 0  0.1020898364287272 0.3140258291809757 0  1.766482954545455 0.2934032012195123 0  1.051658316544432 0.2265720188842194 0  0.2 0.3400647632937836 0  1.421109702350723 0.2261157654379721 0  0.4812500000000001 0.41 0  0.4324401666997539 0.3216425986889796 0  0.098916018031319 0.09171660955420841 0  0.9508742791313441 0.2921736960864468 0  2.13125 0 0  2.118919042110979 0.3422084711244843 0  1.30625 0.41 0  0.20625 0 0  1.597888256393107 0.2173787389261347 0  0.4812500000000001 0 0  0.4324082967851086 0.08384041677422771 0  1.829299675393195 0.07400700849299596 0  0.568219932524165 0.3212274660843853 0  1.71875 0.41 0  0.268005226542646 0.08512186835670006 0  1.16875 0.41 0  2.038220665644273 0.332420740103091 0  0.6678017527842831 0.07701763866051195 0  0.89375 0.41 0  0.5111435174287687 0.07335351331957608 0  0.176193934632343 0.0734896648625108 0  0.07390688010811153 0.1697064032433452 0  0.05452951551825875 0.25625 0  0.61875 0.41 0  1.452769549894695 0.1548122580621249 0  1.369219062229598 0.07430640243902442 0  1.30625 0 0  1.720943423819132 0.1714577452753128 0  1.157188124459196 0.205 0  1.094219062229598 0.07430640243902437 0  1.304056576180868 0.1714577452753128 0  1.67579304192913 0.07430640243902437 0  0.2672907219039591 0.3037570723459566 0  1.209670467133757 0.1362100266964769 0  1.58125 0 0  1.03125 0 0  0.06875000000000001 0.41 0  0 0.35875 0  1.58125 0.41 0  1.631724228912893 0.3381867502687533 0  0.8240147050827157 0.1225233169495944 0  1.825608881788174 0.14499488549201 0  1.85625 0 0  1.44375 0 0  1.44375 0.41 0  1.85625 0.41 0  2.13125 0.41 0  0.7562500000000001 0.41 0  0.7562500000000001 0 0  0.89375 0 0  0.34375 0 0  0.34375 0.41 0  0.20625 0.41 0  0.06875000000000001 0 0  1.16875 0 0  1.03125 0.41 0  0.61875 0 0  1.71875 0 0  1.99375 0 0  1.99375 0.41 0  0.3972301426712326 0.2593842555611471 0  1.340625 0.3489494290853124 0  1.134375 0.3489494290853123 0  1.700180620188976 0.3438659752031281 0  0.5003922072260507 0.341765274319271 0  0.6212513815748759 0.2209216137134851 0  0.6885607720119526 0.215393731583638 0  1.033412357328477 0.1612902025713047 0  2.135782184673599 0.07126652247502523 0  1.668441847249787 0.2129203728327609 0  1.295782514339747 0.2378437748815763 0  1.409375 0.3520314716057996 0  2.129248544730567 0.1906135162504124 0  2.060771381434487 0.1989445750470348 0  2.013252586573865 0.1496169464686054 0  1.942766402200229 0.1734448904596831 0  1.895522487186454 0.06076163953489683 0  2.069553871656643 0.06605731020975725 0  0.9281250000000001 0.3539050257418612 0  1.274680914880868 0.3520219391081363 0  0.3030138498135347 0.2488370856812789 0  0.8223773249563684 0.341761430177996 0  0.9018164060227267 0.2326477848736739 0  0.8143027982392851 0.2440265179987191 0  0.7225087161029304 0.2699907246386231 0  1.614713220494657 0.09473434380863296 0  0.378125 0.3566194660323104 0  0.309375 0.3566194660323104 0  1.72990325744076 0.2380068107952482 0  0.6915936999299305 0.3429472631234433 0  0.6268087624932918 0.3466455500035671 0  1.356580098625191 0.2120393231351682 0  0.3060160055995138 0.1590148921620778 0  0.3954648733249218 0.156380553890791 0  2.034370752044885 0.2668681600792073 0  1.51768709249349 0.3426260931494756 0  1.561883724969884 0.1650446847858835 0  1.197344062229598 0.2523725417393646 0  0.9281250000000001 0.05124999999999999 0  1.804085235518364 0.3468178408964637 0  1.817887819205233 0.2589243285818559 0  0.9107805776841645 0.1653834539923287 0  1.905897727272727 0.3485060975609756 0  0 0.05125 0  0.844212276491354 0.0614201194265309 0  0.378125 0.05244637078450034 0  1.008571329007178 0.2705955969954818 0  0.7724048032149464 0.1559079561351474 0  0.7203054377831548 0.04941826955193545 0  1.192836486056382 0.3562350748565544 0  0.5967108020713719 0.1479294686523888 0  1.28257088594801 0.2944411014911587 0  0.7041890234548132 0.1222025174424443 0  1.474860187679412 0.2504218616229368 0  1.406767003493824 0.2829282258560709 0  0.3201325899091991 0.05890121548989159 0  0.5979220912872258 0.2727591995766724 0  1.845656689180403 0.1998310418452388 0  2.144958525570388 0.2909790873294231 0  2.2 0.15375 0  1.57794966442982 0.3540357145964566 0  0.9483181579620558 0.1214693369582054 0  0.0496154796471391 0.333125 0  1.508991196088596 0.1421783375065625 0  0.09776612425612034 0.2204896805326566 0  1.50436820029908 0.06143401634903343 0  1.223857000523521 0.0823554862453532 0  0.2531953886959507 0.3582003209055908 0  1.153316824384777 0.1289850171317837 0  2.148922302309752 0.1258841779285271 0  1.621993280276081 0.2841214267927899 0  1.550118654119087 0.2461998729100966 0  1.327182649291491 0.1216967252533594 0  1.753125 0.04556020050186112 0  1.271875 0.04556020050186116 0  0.9824282234771738 0.05051969257615314 0  1.039510847866381 0.05683351822678641 0  1.94956388244759 0.1180512551534177 0  1.949997712993411 0.04965831614304109 0  1.771961817615021 0.1530278789497521 0  1.909246823951428 0.2812757146784527 0  1.101974016627944 0.2038045618205013 0  0.7906250000000001 0.0444674049654372 0  1.948575539857022 0.2445328248721197 0  1.697271520964565 0.1233917627620729 0  1.065625 0.3689344961371042 0  1.085849084308977 0.3170853572226867 0  0.9840604787624379 0.3582077516409966 0  1.577403511714593 0.05463601888079143 0  0.05622663515370135 0.05493816910862376 0  0.8762396958822678 0.3392249777398821 0  1.751571320346033 0.3651102912045228 0  1.055327852410105 0.111864799513911 0  0.1583785085108421 0.2994699345738728 0  0.1455283439499995 0.3542795598723423 0  2.2 0.35875 0  0.225705107073232 0.05084786997482401 0  0.1455852234589313 0.1166494778469164 0  1.466879772203159 0.3611261772912453 0  1.990280163552011 0.3564754268533217 0  1.17471064520912 0.2990917256188288 0  0.7221925551074015 0.1739659241003985 0  0 0.25625 0  2.2 0.25625 0  2.2 0.05125 0  0 0.15375 0  1.853978576207987 0.35875 0  0.21965520498276 0.1015543880164422 0  1.515638456102889 0.2882700110184686 0  0.09048297387599738 0.3637717362208066 0  2.150453692751374 0.2387066338105111 0  1.323782677156475 0.04897634338873398 0  1.409375 0.03715320121951221 0  1.406484531114799 0.1087852750766809 0  1.134375 0.03715320121951218 0  1.627401732573545 0.04552157221025036 0  0.446875 0.3713289093361426 0  2.045405893604797 0.1105340662939892 0  1.255408269734577 0.1577307500159216 0  2.028125 0.03707597992059326 0  0.04420832937638274 0.128125 0  0.5817551710628505 0.3702615006034757 0  0.1197849154434487 0.2663398672460083 0  1.248258025468107 0.2565907092181813 0  0.1300647302703173 0.0508462728378621 0  0.7738123537510222 0.2761231499240648 0  1.203125 0.0366132337404304 0  0.5444207041612499 0.111205399508622 0  0.8016457771828226 0.1964238426015905 0  2.072662025974815 0.2975086504196739 0  0.4019040438866802 0.2103993403217561 0  0.4677372330974851 0.04827477407630658 0  0.8677218578847617 0.1432970430140788 0  1.058011122005847 0.2758866204059919 0  0.4429405887974043 0.2746184809910084 0  0.5843750000000001 0.03726989681835222 0  0.6318596133730142 0.1128692182767254 0  0.4862628454464408 0.2957029785303028 0  0.7805186758662764 0.3673578380827891 0  1.887722846421017 0.1760882698830035 0  0.3498893058880703 0.256189258793856 0  1.472640588990488 0.1118278026240017 0  1.865937103925594 0.2604137786483804 0
[...]
<PointData  Vectors="f_37"> 
<DataArray  type="Float64"  Name="f_37"  NumberOfComponents="3" format="ascii">-6.1154614533333667e-07 2.0498526305984701e-08 0.0000000000000000e+00  3.7317822960017853e-07 -2.9718043248679264e-08 0.0000000000000000e+00  -6.6105070773274737e-07 5.9798270633107339e-09 0.0000000000000000e+00  1.0380224258715871e-06 -2.5672663043353268e-09 0.0000000000000000e+00  -9.8924987270820960e-07 1.1648843255304860e-07 0.0000000000000000e+00  -7.7484816216777243e-07 1.1531258911638806e-07 0.0000000000000000e+00  -1.6617904321094866e-06 3.0477551687528038e-07 0.0000000000000000e+00  1.1707786835224344e-06 2.7611669142917188e-07 0.0000000000000000e+00  2.8861248166583780e-06 -4.6983481899256679e-07 0.0000000000000000e+00  -9.4663069696528630e-07 7.0093879903172494e-08 0.0000000000000000e+00  -1.7352183379720421e-06 1.0844164033596625e-06 0.0000000000000000e+00  6.6500746733839439e-07 2.2285974415366518e-06 0.0000000000000000e+00  -3.7522375954803256e-06 -1.2841213819901642e-06 0.0000000000000000e+00  -3.5360712551748030e-06 -8.6334220968153326e-07 0.0000000000000000e+00  -1.9787638155984611e-06 -1.2940233398766982e-07 0.0000000000000000e+00  -1.4507041147609776e-06 -2.4954685823070959e-07 0.0000000000000000e+00  -3.8521072143689744e-06 -3.5548989242708735e-07 0.0000000000000000e+00  -2.8603807375833080e-06 -5.4961682017664419e-08 0.0000000000000000e+00  -1.6400297206878634e-06 -1.0378932481493632e-07 0.0000000000000000e+00  -1.6247994213700734e-06 -2.6327343451422689e-07 0.0000000000000000e+00  -1.0520469619600210e-06 -9.5320431537455810e-08 0.0000000000000000e+00  -1.0182866225937472e-06 -8.8940945543889267e-08 0.0000000000000000e+00  -8.6314593559389262e-07 1.9317320078206466e-07 0.0000000000000000e+00  -5.4505263676153239e-07 1.2472718977252645e-07 0.0000000000000000e+00  -1.7999317363099192e-06 1.1512307375931982e-08 0.0000000000000000e+00  1.5000025228101783e+00 1.0030584837581428e-08 0.0000000000000000e+00  8.3792270926867563e-08 5.7525126960174607e-08 0.0000000000000000e+00  -2.2770629842228469e-06 -6.2837888687185350e-08 0.0000000000000000e+00  -9.2233694572952250e-07 6.7701746189298296e-08 0.0000000000000000e+00  -2.6243459784165616e-06 9.0670463918802197e-08 0.0000000000000000e+00  -1.0845676308261623e-06 -2.7038119776047366e-08 0.0000000000000000e+00  -9.1492940968625442e-07 -7.3192928893852339e-08 0.0000000000000000e+00  5.9967304285791901e-07 -3.4262990082246685e-08 0.0000000000000000e+00  1.1614657758480933e-06 1.6372782190857167e-07 0.0000000000000000e+00  1.4649795860309741e-06 1.9819579929982554e-07 0.0000000000000000e+00  2.3460526481552828e-07 3.9941454473403018e-09 0.0000000000000000e+00  -2.7137600792219733e-07 -4.0245617283509659e-08 0.0000000000000000e+00  -7.1003799969869023e-07 -3.5650177493419494e-08 0.0000000000000000e+00  -2.0920035855439656e-06 -1.7786090554553769e-07 0.0000000000000000e+00  1.0487333751214278e+00 -1.9915708891038792e-02 0.0000000000000000e+00  1.1175004635471153e+00 3.0827336713901119e-02 0.0000000000000000e+00  6.1059129207339613e-01 1.0953053066856412e-02 0.0000000000000000e+00  8.9958951187026803e-01 -1.1608192739222445e-02 0.0000000000000000e+00  1.2085924468213713e+00 3.7896188465237436e-02 0.0000000000000000e+00  2.1918986346039920e-01 -5.3376730147115539e-02 0.0000000000000000e+00  1.1948943524021851e+00 -3.2189915720015470e-02 0.0000000000000000e+00  -1.4613714097385154e-06 -1.5247595486133919e-08 0.0000000000000000e+00  -1.7783625776120269e-06 -4.0888220509192525e-08 0.0000000000000000e+00  -1.1112972620806556e-06 -2.0250918777375430e-08 0.0000000000000000e+00  1.2827598030996723e+00 -5.6333056589402816e-03 0.0000000000000000e+00  -1.2830355454444576e-07 5.5245529268752228e-08 0.0000000000000000e+00  -3.8852448768097485e-07 1.3666459946897436e-07 0.0000000000000000e+00  1.3469827731628294e+00 1.5646974723471336e-02 0.0000000000000000e+00  1.5075830138019198e-06 -2.9886499288362769e-08 0.0000000000000000e+00  -7.6109129250845055e-07 5.0220107866528152e-08 0.0000000000000000e+00  1.1754393885773393e-06 -6.3377909689465973e-08 0.0000000000000000e+00  -8.5069086158460769e-07 4.8677414716482339e-08 0.0000000000000000e+00  -5.8133102657866702e-07 1.9221283097593288e-08 0.0000000000000000e+00  -7.0776370329378614e-07 -2.5395988334181875e-08 0.0000000000000000e+00  3.0527474777600102e-07 6.4748313773271851e-08 0.0000000000000000e+00  6.0125264731551843e-07 1.3397669537840272e-07 0.0000000000000000e+00  -2.7563341116754943e-06 1.0942634396371747e-07 0.0000000000000000e+00  1.9235549625234913e-06 -1.4831685248857534e-07 0.0000000000000000e+00  1.3626175906149245e+00 1.5440550887066220e-02 0.0000000000000000e+00  -1.7508410399393084e-06 -2.0719935759349965e-07 0.0000000000000000e+00  1.3530072852318580e+00 1.2552397128677563e-02 0.0000000000000000e+00  1.5749460731393166e+00 -2.2280024704518567e-02 0.0000000000000000e+00  1.4264895261815072e+00 2.4550247379926523e-03 0.0000000000000000e+00  1.5214554884338112e+00 -8.7194984245242413e-03 0.0000000000000000e+00  1.9609065573480906e+00 2.9939894514463709e-02 0.0000000000000000e+00  1.3309796163708780e+00 1.1038156542378717e-03 0.0000000000000000e+00  1.3489299173927491e+00 1.2383073416464470e-02 0.0000000000000000e+00  1.3071801213618979e+00 -3.2776844285974803e-03 0.0000000000000000e+00  1.6620659556022406e+00 -9.8930735385712079e-02 0.0000000000000000e+00  1.5528100718850020e+00 7.8453849001387119e-02 0.0000000000000000e+00  1.8646349196087550e+00 9.8708489472367576e-03 0.0000000000000000e+00  1.1249986011411541e+00 -1.7483139898230091e-07 0.0000000000000000e+00  1.1250027121918527e+00 1.2962528769894229e-08 0.0000000000000000e+00  1.7712167455563783e+00 -1.6614556984474368e-01 0.0000000000000000e+00  1.6488977596797962e+00 1.3951962472914728e-01 0.0000000000000000e+00  7.3479543094464783e-01 1.0330062061483793e-01 0.0000000000000000e+00  1.3186051204227467e+00 3.1389685732722099e-03 0.0000000000000000e+00  1.4730941557987445e+00 2.5204178020358479e-02 0.0000000000000000e+00  1.1172438325454246e+00 2.2245104647031317e-03 0.0000000000000000e+00  1.3643972635788228e+00 -3.5830425614447560e-03 0.0000000000000000e+00  1.3937158702213777e+00 8.6329737981888661e-03 0.0000000000000000e+00  1.2429119552052132e+00 -2.3429398778809958e-02 0.0000000000000000e+00  1.5472654018078069e+00 -1.2034579584087227e-01 0.0000000000000000e+00  1.2445229304624950e+00 6.0569613672473476e-03 0.0000000000000000e+00  1.2849355368015014e+00 -1.4013289393042896e-03 0.0000000000000000e+00  1.3928674210164682e+00 3.8795946086380532e-03 0.0000000000000000e+00  1.2234094427618907e+00 2.0103822744052041e-03 0.0000000000000000e+00  1.4093793162455737e+00 5.6235089538249775e-03 0.0000000000000000e+00  1.3390525064227425e+00 5.8399679476395334e-03 0.0000000000000000e+00  1.0600276110666484e+00 -4.1894248491237416e-03 0.0000000000000000e+00  1.0930690861610683e+00 3.9523355045733575e-03 0.0000000000000000e+00  -3.3031158825541423e-01 -1.4497511785978993e-02 0.0000000000000000e+00  1.7791688435310877e+00 1.2303381188440973e-01 0.0000000000000000e+00  4.2832736481277606e-01 3.1267811192828864e-02 0.0000000000000000e+00  1.2367322044423166e+00 -1.6092324799377007e-02 0.0000000000000000e+00  1.1818541853869500e+00 2.5546722587796361e-01 0.0000000000000000e+00  1.4118702353274994e+00 -6.8671941767115092e-03 0.0000000000000000e+00  1.0258783418403878e+00 -3.5426612209433439e-02 0.0000000000000000e+00  1.3810626156989603e+00 2.1765191885187726e-01 0.0000000000000000e+00  1.1440498081821024e+00 2.2543982140802322e-03 0.0000000000000000e+00  8.3657721654256706e-07 -8.1812537091475145e-09 0.0000000000000000e+00  1.8394004095650005e+00 -6.1178413145380764e-02 0.0000000000000000e+00  1.1435691928597256e+00 -2.5637230102434805e-01 0.0000000000000000e+00  1.6243724496944731e+00 -6.3078590331592146e-02 0.0000000000000000e+00  -8.8118153224484552e-07 3.9966908938438007e-08 0.0000000000000000e+00  9.5585948577171320e-01 -2.0496287847891230e-04 0.0000000000000000e+00  -2.7714858889056842e-06 -3.1545571778929284e-09 0.0000000000000000e+00  -6.9018090353954064e-06 2.7030372145276476e-07 0.0000000000000000e+00  1.1114921581251014e+00 -2.8384127901856172e-02 0.0000000000000000e+00  9.9649923951577107e-07 -2.3053591981121798e-08 0.0000000000000000e+00  1.8256867844790234e+00 7.8214782915762199e-02 0.0000000000000000e+00  1.0267467123528897e+00 -8.1081974211683202e-04 0.0000000000000000e+00  1.7925115935439515e+00 -1.1373923230843085e-01 0.0000000000000000e+00  -2.5909494381406460e-06 8.5694822929111122e-09 0.0000000000000000e+00  1.7978564578025966e+00 -1.4125423020495265e-01 0.0000000000000000e+00  -7.3124542836621207e-07 -1.4435662213547776e-07 0.0000000000000000e+00  1.0674820880720739e+00 2.0160483040426152e-03 0.0000000000000000e+00  1.6026013031942845e+00 1.2830856656493844e-01 0.0000000000000000e+00  -3.1193424806825534e-06 -5.0883579927523367e-09 0.0000000000000000e+00  1.7219714259522880e+00 7.4663025107272921e-02 0.0000000000000000e+00  1.3596363764106778e+00 -3.0227644222121353e-01 0.0000000000000000e+00  1.3399818561570711e+00 -1.2282896245188164e-01 0.0000000000000000e+00  1.3729741993477529e+00 1.2466877532036476e-01 0.0000000000000000e+00  2.2707208651682274e-08 2.7450344074353956e-08 0.0000000000000000e+00  1.2544583905847790e+00 8.9718464678179132e-03 0.0000000000000000e+00  1.0594515042845849e+00 -9.7943895020620991e-03 0.0000000000000000e+00  1.3882404784012757e-06 1.1853251655610587e-07 0.0000000000000000e+00  1.2214968006096782e+00 2.3388650000967778e-02 0.0000000000000000e+00  8.5125317105825526e-01 -3.1605284272946677e-02 0.0000000000000000e+00  1.1159197573150161e+00 4.0826468531200803e-03 0.0000000000000000e+00  1.1572849279809292e+00 2.7048620385047840e-02 0.0000000000000000e+00  1.0322830601140212e+00 -3.6906603704315263e-03 0.0000000000000000e+00  1.9203145033232991e+00 1.8464448667748556e-01 0.0000000000000000e+00  1.4870401412204515e+00 2.1264172681059384e-02 0.0000000000000000e+00  2.9956878737089728e-06 -8.7660454173219202e-08 0.0000000000000000e+00  -1.0140399363753885e-06 1.2156591425152249e-07 0.0000000000000000e+00  -8.0066514298230727e-07 -5.6421751572486564e-08 0.0000000000000000e+00  6.5625203813247712e-01 1.5240272189635063e-08 0.0000000000000000e+00  -1.4108964089236678e-06 -1.1740213981840400e-07 0.0000000000000000e+00  1.0134027480594323e+00 5.7914400167972642e-03 0.0000000000000000e+00  1.6315931752085582e+00 1.2995446904318175e-01 0.0000000000000000e+00  1.3059331041913778e+00 1.1407181451071363e-02 0.0000000000000000e+00  -6.5929263773024495e-07 -7.9142357923043517e-10 0.0000000000000000e+00  -4.2567153054711631e-06 8.6801199783658913e-08 0.0000000000000000e+00  1.2417085710073660e-06 1.0535605770216226e-07 0.0000000000000000e+00  -3.6717302142562974e-07 8.7381487131680139e-08 0.0000000000000000e+00  -1.0851281713694531e-06 -1.1215255856541362e-08 0.0000000000000000e+00  -2.1934863088295368e-07 3.7828954646411479e-08 0.0000000000000000e+00  -2.6309850346628274e-06 -1.7949609724612751e-07 0.0000000000000000e+00  8.1556224354838842e-08 -9.4971138161682134e-08 0.0000000000000000e+00  2.2056467211954326e-07 -5.0099674309118679e-09 0.0000000000000000e+00  3.4436718948677451e-07 1.5707381958243515e-08 0.0000000000000000e+00  1.1631949607318751e-06 -8.7348269521617784e-08 0.0000000000000000e+00  -8.2323440307679918e-07 1.4445770542109224e-07 0.0000000000000000e+00  6.4827668876102981e-07 -9.6761228979738997e-08 0.0000000000000000e+00  -3.8689849079759066e-07 2.1183533854616544e-07 0.0000000000000000e+00  -2.8674012833697989e-06 -1.6731892828076757e-07 0.0000000000000000e+00  -2.5787811337784477e-06 1.0778131048837325e-07 0.0000000000000000e+00  -1.1671277371993521e-06 -4.2711177298344894e-08 0.0000000000000000e+00  -3.0895791091822480e-06 -7.8982960771258968e-08 0.0000000000000000e+00  7.2445118100134498e-01 -4.3169612976213884e-02 0.0000000000000000e+00  8.6335795127086523e-01 7.4968379891560165e-04 0.0000000000000000e+00  8.6921577642257764e-01 4.3592982278860487e-03 0.0000000000000000e+00  9.3999206031388716e-01 6.9934660338697428e-04 0.0000000000000000e+00  1.6559715019872334e+00 -6.9833155490842944e-02 0.0000000000000000e+00  8.0735492717404090e-03 -9.6670992841501116e-03 0.0000000000000000e+00  4.1272732586407748e-02 -3.8636071709444192e-02 0.0000000000000000e+00  1.1642584467612076e+00 3.0353454788418128e-02 0.0000000000000000e+00  9.7410398069886228e-01 -8.1452751720920515e-04 0.0000000000000000e+00  1.0929978473760085e+00 -5.5474743259686793e-03 0.0000000000000000e+00  1.1884510490547657e+00 -1.9813141890895138e-04 0.0000000000000000e+00  8.1089233435566288e-01 1.6374384054964059e-03 0.0000000000000000e+00  1.2217144829352626e+00 2.4738828918425607e-02 0.0000000000000000e+00  1.1858136616534238e+00 -1.0488097605691948e-02 0.0000000000000000e+00  1.3211839594668291e+00 -6.8992428297896618e-04 0.0000000000000000e+00  1.1855805188483137e+00 -1.8321774200006261e-02 0.0000000000000000e+00  8.6610589326284904e-01 -4.2639550615626066e-04 0.0000000000000000e+00  9.1928254093248440e-01 -5.8157957097516790e-04 0.0000000000000000e+00  8.8289275501871101e-01 -2.3291451015667639e-02 0.0000000000000000e+00  8.1956737073515562e-01 4.7607506571170138e-03 0.0000000000000000e+00  2.3166836753711470e-01 5.1489729742184832e-02 0.0000000000000000e+00  1.2294140968129827e+00 -6.8499644721817424e-02 0.0000000000000000e+00  9.3599618938924445e-01 -5.0050547821939621e-02 0.0000000000000000e+00  1.0800254912308396e+00 -1.0715795479973186e-01 0.0000000000000000e+00  1.5525803707850308e+00 -1.6983563691553630e-01 0.0000000000000000e+00  1.2632792788035567e+00 4.0095768233564142e-03 0.0000000000000000e+00  1.5339180454271961e+00 -2.6266931305656094e-02 0.0000000000000000e+00  1.4843546735236004e+00 3.2153846851032321e-02 0.0000000000000000e+00  1.2302501827043637e+00 1.0315086432525596e-02 0.0000000000000000e+00  1.4283012517671143e+00 -1.0773415602789378e-01 0.0000000000000000e+00  1.4817644546198119e+00 -1.0235175526774010e-01 0.0000000000000000e+00  9.8609521105016362e-01 2.3837300887257485e-02 0.0000000000000000e+00  8.0000745406600349e-02 -5.4630377849694954e-02 0.0000000000000000e+00  2.8493784874802808e-01 2.4200712597509215e-02 0.0000000000000000e+00  1.3618723262697294e+00 -3.4050623624382213e-03 0.0000000000000000e+00  9.4380259832703473e-01 8.8346290979512531e-03 0.0000000000000000e+00  1.1929492353768001e+00 -9.4884378136782764e-03 0.0000000000000000e+00  1.3888428704632791e+00 -1.7786242904692842e-02 0.0000000000000000e+00  7.8641184073504977e-01 1.5667812389402555e-02 0.0000000000000000e+00  8.9320009281583923e-01 9.3371851544178132e-04 0.0000000000000000e+00  1.4031572577521669e+00 -7.0101664662777325e-03 0.0000000000000000e+00  1.0427712881514548e+00 7.5170548348948943e-02 0.0000000000000000e+00  8.7286697286043491e-01 4.5433549135623173e-03 0.0000000000000000e+00  6.5624905574369574e-01 8.5694621890507816e-08 0.0000000000000000e+00  1.0792749863132598e+00 5.4353519735598821e-02 0.0000000000000000e+00  1.5677202315108716e+00 3.7301319536996135e-02 0.0000000000000000e+00  1.6003519975537683e+00 -5.5677245141405027e-02 0.0000000000000000e+00  1.0470887411732095e+00 1.1972828180145856e-01 0.0000000000000000e+00  1.0729078199968054e+00 7.1017378475575349e-02 0.0000000000000000e+00  7.4950888143086603e-01 7.7887867664144282e-03 0.0000000000000000e+00  8.0309627156080998e-01 8.8424872224919265e-02 0.0000000000000000e+00  1.4914505669761589e+00 9.5834020149925014e-04 0.0000000000000000e+00  1.6538458542440684e+00 1.6662667828985861e-01 0.0000000000000000e+00  1.3980614148615402e+00 -2.0365303732435624e-02 0.0000000000000000e+00  1.5182757996865286e+00 -1.5257765361741612e-02 0.0000000000000000e+00  1.6076652611956233e+00 -1.7148952776247357e-02 0.0000000000000000e+00  1.5011267628197817e+00 -1.3721227596378624e-01 0.0000000000000000e+00  1.1311550821474887e+00 1.6394601665444528e-02 0.0000000000000000e+00  1.3600086031075134e+00 -2.0705256059177764e-04 0.0000000000000000e+00  1.2941906129098455e+00 2.1470071008745012e-02 0.0000000000000000e+00  7.9506352300435001e-01 7.3828774752994911e-03 0.0000000000000000e+00  1.5783560991103631e+00 5.9322001823343108e-02 0.0000000000000000e+00  9.4149700194478170e-01 9.3608055212596908e-02 0.0000000000000000e+00  1.3434844368534755e+00 1.7630228469551841e-03 0.0000000000000000e+00  1.2233593883163900e+00 1.6056425937157343e-01 0.0000000000000000e+00  8.8140994067814471e-01 -8.8109270923769894e-04 0.0000000000000000e+00  1.1913895167306350e+00 2.9673333054625931e-03 0.0000000000000000e+00  1.3610040592984296e+00 9.6679638914347318e-02 0.0000000000000000e+00  1.5167709405553931e+00 1.7637319751562588e-02 0.0000000000000000e+00  1.3238958255213455e+00 8.9298865096927964e-03 0.0000000000000000e+00  1.4333294428270875e+00 5.9724492658404810e-03 0.0000000000000000e+00  1.3448113694957533e+00 -1.9578474722751229e-02 0.0000000000000000e+00  1.4625451466046404e+00 5.1776607816253709e-03 0.0000000000000000e+00  6.6432010837690036e-01 -2.4348198422434941e-03 0.0000000000000000e+00  6.2698250037616809e-01 -5.4709925783941928e-03 0.0000000000000000e+00  7.4115310556492509e-01 4.4726782330489967e-03 0.0000000000000000e+00  8.3724765807097312e-01 5.8855137332344452e-04 0.0000000000000000e+00  1.3330761866706966e+00 2.0157722382186227e-03 0.0000000000000000e+00  7.2176356587130286e-01 -6.5468110066861174e-04 0.0000000000000000e+00  1.3027019528031789e+00 1.9409783731834315e-02 0.0000000000000000e+00  1.4175482922242888e+00 -7.3307804485931360e-03 0.0000000000000000e+00  8.0120768048008628e-01 -2.4735239791325785e-02 0.0000000000000000e+00  8.2097831383583841e-01 4.3172486737908460e-02 0.0000000000000000e+00  1.3398534012360113e+00 -2.0614893175073392e-02 0.0000000000000000e+00  1.3905976148331380e+00 9.0644076117099865e-03 0.0000000000000000e+00  5.4289589304818164e-01 -2.1617245840519425e-04 0.0000000000000000e+00  1.3532485309179756e+00 -1.5760972377311562e-02 0.0000000000000000e+00  7.5938636226329359e-01 -1.2224123476277335e-02 0.0000000000000000e+00  7.8172905546738369e-01 -1.4046562097362197e-03 0.0000000000000000e+00  7.3881324611023447e-01 -7.9182523724393536e-02 0.0000000000000000e+00  1.2008872858711539e+00 -5.1954116114616235e-02 0.0000000000000000e+00  6.4936087514997420e-01 4.9739944059322145e-04 0.0000000000000000e+00  1.5200282756834245e+00 1.6481276080358282e-02 0.0000000000000000e+00  1.5283725795884435e+00 4.7610047262412636e-01 0.0000000000000000e+00  1.0046091287691905e+00 1.8218760971138970e-01 0.0000000000000000e+00  7.4937646997400809e-01 3.4939036383467673e-04 0.0000000000000000e+00  1.3189382186632865e+00 -1.2560383249257431e-01 0.0000000000000000e+00  1.4489212213233797e+00 -5.4608754427825568e-01 0.0000000000000000e+00  6.7920938637191275e-01 4.5361256956628132e-03 0.0000000000000000e+00  7.7873679682734420e-01 2.8759564783472015e-03 0.0000000000000000e+00  1.4842220363128324e+00 -1.1473044395573378e-03 0.0000000000000000e+00  3.8108225663202899e-01 6.5977299256916269e-02 0.0000000000000000e+00  1.4062539957821940e+00 1.1855581462877715e-07 0.0000000000000000e+00  1.3592559064698058e+00 8.5001612621727861e-03 0.0000000000000000e+00  7.4216978792039767e-01 -3.1365242855773692e-04 0.0000000000000000e+00  1.4062505957610569e+00 3.2144492070718792e-08 0.0000000000000000e+00  7.3774068338788357e-01 2.5863154698290594e-03 0.0000000000000000e+00  1.8372752772137073e+00 -3.2975704196121131e-01 0.0000000000000000e+00  1.4632580737185896e+00 -2.3927604604562767e-03 0.0000000000000000e+00  7.1441797665466478e-01 9.8565195366650357e-02 0.0000000000000000e+00  1.2633794820079718e+00 1.9736783171356451e-02 0.0000000000000000e+00  6.8602039142930860e-01 -7.6333411997909746e-03 0.0000000000000000e+00  5.2452192073470283e-01 -4.2653462502083208e-03 0.0000000000000000e+00  1.3873118815247365e+00 -5.1830356574601730e-03 0.0000000000000000e+00  4.9082700636901394e-01 -1.8427863494510849e-03 0.0000000000000000e+00  6.5484079684103158e-01 -2.3939086195156065e-03 0.0000000000000000e+00  1.3073970217966062e+00 -4.