<?xml version="1.0"?>
<VTKFile type="UnstructuredGrid"  version="0.1"  >
<UnstructuredGrid>
<Piece  NumberOfPoints="2426" NumberOfCells="4534">
<Points>
<DataArray  type="Float64"  NumberOfComponents="3"  format="ascii">0 0.41 0  0 0 0  2.2 0 0  2.2 0.41 0  0.2404508497187474 0.2293892626146237 0  0.25 0.2 0  0.2404508497187474 0.1706107373853764 0  0.2154508497187474 0.1524471741852423 0  0.1845491502812526 0.1524471741852423 0  0.1595491502812526 0.1706107373853764 0  0.15 0.2 0  0.1595491502812526 0.2293892626146237 0  0.1845491502812527 0.2475528258147577 0  0.2154508497187474 0.2475528258147577 0  0.5404508497187474 0.2293892626146237 0  0.55 0.2 0  0.5404508497187474 0.1706107373853764 0  0.5154508497187473 0.1524471741852423 0  0.4845491502812526 0.1524471741852423 0  0.4595491502812526 0.1706107373853764 0  0.45 0.2 0  0.4595491502812526 0.2293892626146237 0  0.4845491502812526 0.2475528258147577 0  0.5154508497187473 0.2475528258147577 0  1.1 0 0  0 0.205 0  1.1 0.41 0  0.55 0 0  0.55 0.41 0  0.275 0 0  0.275 0.41 0  1.65 0.41 0  1.65 0 0  1.375 0 0  1.375 0.41 0  1.925 0 0  1.925 0.41 0  0.8250000000000001 0.41 0  0.8250000000000001 0 0  1.5125 0.205 0  1.7875 0.205 0  0.9625000000000001 0.205 0  1.2375 0.205 0  2.2 0.205 0  0.7560964076246335 0.2151713709677419 0  1.99375 0.2152743902439024 0  2.0625 0 0  0.6875 0 0  2.0625 0.41 0  2.2 0.3075 0  0.6875 0.41 0  1.7875 0.41 0  1.375 0.1486128048780488 0  1.5125 0 0  1.7875 0 0  1.5125 0.41 0  0.9625000000000001 0 0  0.9625000000000001 0.41 0  0.4125 0 0  0.1375 0 0  0.1375 0.41 0  0.4125 0.41 0  1.2375 0 0  1.1 0.1486128048780487 0  1.2375 0.41 0  1.65 0.1486128048780487 0  1.126715909090909 0.2793064024390244 0  1.676715909090909 0.2793064024390244 0  1.348284090909091 0.2793064024390244 0  0.34375 0.3032389320646208 0  1.894702181800738 0.1282910975492754 0  2.092797818199262 0.1282910975492754 0  1.85625 0.3075 0  0.8630851210521902 0.286932093388664 0  0.89375 0.1025 0  0.35 0.1090282786671641 0  0 0.3075 0  0 0.1025 0  0.6526217841291382 0.288229645480046 0  0.7562500000000001 0.09660248895515888 0  0.6568633732316684 0.1557582854763441 0  2.099172119769978 0.25625 0  1.002356446954348 0.1010393851523063 0  1.99375 0.08395950269330846 0  1.459960956013612 0.3075 0  1.569025960719943 0.2986889805672169 0  1.03125 0.3278689922742084 0  0.75625 0.3247156761655783 0  1.959375 0.3126371951219512 0  1.749222215368287 0.1025 0  1.275777784631713 0.1025 0  2.2 0.1025 0  1.225938124459196 0.3075 0  1.550777784631713 0.1025 0  1.44375 0.07430640243902442 0  1.16875 0.07430640243902437 0  0.3528655045338512 0.2063263890916129 0  0.5890337614812103 0.08775733857679162 0  0.8504912436891263 0.190072835691683 0  1.899250267340833 0.2229966846119207 0  0.1020898364287272 0.3140258291809757 0  1.766482954545455 0.2934032012195123 0  1.051658316544432 0.2265720188842194 0  0.2 0.3400647632937836 0  1.421109702350723 0.2261157654379721 0  0.4812500000000001 0.41 0  0.4324401666997539 0.3216425986889796 0  0.098916018031319 0.09171660955420841 0  0.9508742791313441 0.2921736960864468 0  2.13125 0 0  2.118919042110979 0.3422084711244843 0  1.30625 0.41 0  0.20625 0 0  1.597888256393107 0.2173787389261347 0  0.4812500000000001 0 0  0.4324082967851086 0.08384041677422771 0  1.829299675393195 0.07400700849299596 0  0.568219932524165 0.3212274660843853 0  1.71875 0.41 0  0.268005226542646 0.08512186835670006 0  1.16875 0.41 0  2.038220665644273 0.332420740103091 0  0.6678017527842831 0.07701763866051195 0  0.89375 0.41 0  0.5111435174287687 0.07335351331957608 0  0.176193934632343 0.0734896648625108 0  0.07390688010811153 0.1697064032433452 0  0.05452951551825875 0.25625 0  0.61875 0.41 0  1.452769549894695 0.1548122580621249 0  1.369219062229598 0.07430640243902442 0  1.30625 0 0  1.720943423819132 0.1714577452753128 0  1.157188124459196 0.205 0  1.094219062229598 0.07430640243902437 0  1.304056576180868 0.1714577452753128 0  1.67579304192913 0.07430640243902437 0  0.2672907219039591 0.3037570723459566 0  1.209670467133757 0.1362100266964769 0  1.58125 0 0  1.03125 0 0  0.06875000000000001 0.41 0  0 0.35875 0  1.58125 0.41 0  1.631724228912893 0.3381867502687533 0  0.8240147050827157 0.1225233169495944 0  1.825608881788174 0.14499488549201 0  1.85625 0 0  1.44375 0 0  1.44375 0.41 0  1.85625 0.41 0  2.13125 0.41 0  0.7562500000000001 0.41 0  0.7562500000000001 0 0  0.89375 0 0  0.34375 0 0  0.34375 0.41 0  0.20625 0.41 0  0.06875000000000001 0 0  1.16875 0 0  1.03125 0.41 0  0.61875 0 0  1.71875 0 0  1.99375 0 0  1.99375 0.41 0  0.3972301426712326 0.2593842555611471 0  1.340625 0.3489494290853124 0  1.134375 0.3489494290853123 0  1.700180620188976 0.3438659752031281 0  0.5003922072260507 0.341765274319271 0  0.6212513815748759 0.2209216137134851 0  0.6885607720119526 0.215393731583638 0  1.033412357328477 0.1612902025713047 0  2.135782184673599 0.07126652247502523 0  1.668441847249787 0.2129203728327609 0  1.295782514339747 0.2378437748815763 0  1.409375 0.3520314716057996 0  2.129248544730567 0.1906135162504124 0  2.060771381434487 0.1989445750470348 0  2.013252586573865 0.1496169464686054 0  1.942766402200229 0.1734448904596831 0  1.895522487186454 0.06076163953489683 0  2.069553871656643 0.06605731020975725 0  0.9281250000000001 0.3539050257418612 0  1.274680914880868 0.3520219391081363 0  0.3030138498135347 0.2488370856812789 0  0.8223773249563684 0.341761430177996 0  0.9018164060227267 0.2326477848736739 0  0.8143027982392851 0.2440265179987191 0  0.7225087161029304 0.2699907246386231 0  1.614713220494657 0.09473434380863296 0  0.378125 0.3566194660323104 0  0.309375 0.3566194660323104 0  1.72990325744076 0.2380068107952482 0  0.6915936999299305 0.3429472631234433 0  0.6268087624932918 0.3466455500035671 0  1.356580098625191 0.2120393231351682 0  0.3060160055995138 0.1590148921620778 0  0.3954648733249218 0.156380553890791 0  2.034370752044885 0.2668681600792073 0  1.51768709249349 0.3426260931494756 0  1.561883724969884 0.1650446847858835 0  1.197344062229598 0.2523725417393646 0  0.9281250000000001 0.05124999999999999 0  1.804085235518364 0.3468178408964637 0  1.817887819205233 0.2589243285818559 0  0.9107805776841645 0.1653834539923287 0  1.905897727272727 0.3485060975609756 0  0 0.05125 0  0.844212276491354 0.0614201194265309 0  0.378125 0.05244637078450034 0  1.008571329007178 0.2705955969954818 0  0.7724048032149464 0.1559079561351474 0  0.7203054377831548 0.04941826955193545 0  1.192836486056382 0.3562350748565544 0  0.5967108020713719 0.1479294686523888 0  1.28257088594801 0.2944411014911587 0  0.7041890234548132 0.1222025174424443 0  1.474860187679412 0.2504218616229368 0  1.406767003493824 0.2829282258560709 0  0.3201325899091991 0.05890121548989159 0  0.5979220912872258 0.2727591995766724 0  1.845656689180403 0.1998310418452388 0  2.144958525570388 0.2909790873294231 0  2.2 0.15375 0  1.57794966442982 0.3540357145964566 0  0.9483181579620558 0.1214693369582054 0  0.0496154796471391 0.333125 0  1.508991196088596 0.1421783375065625 0  0.09776612425612034 0.2204896805326566 0  1.50436820029908 0.06143401634903343 0  1.223857000523521 0.0823554862453532 0  0.2531953886959507 0.3582003209055908 0  1.153316824384777 0.1289850171317837 0  2.148922302309752 0.1258841779285271 0  1.621993280276081 0.2841214267927899 0  1.550118654119087 0.2461998729100966 0  1.327182649291491 0.1216967252533594 0  1.753125 0.04556020050186112 0  1.271875 0.04556020050186116 0  0.9824282234771738 0.05051969257615314 0  1.039510847866381 0.05683351822678641 0  1.94956388244759 0.1180512551534177 0  1.949997712993411 0.04965831614304109 0  1.771961817615021 0.1530278789497521 0  1.909246823951428 0.2812757146784527 0  1.101974016627944 0.2038045618205013 0  0.7906250000000001 0.0444674049654372 0  1.948575539857022 0.2445328248721197 0  1.697271520964565 0.1233917627620729 0  1.065625 0.3689344961371042 0  1.085849084308977 0.3170853572226867 0  0.9840604787624379 0.3582077516409966 0  1.577403511714593 0.05463601888079143 0  0.05622663515370135 0.05493816910862376 0  0.8762396958822678 0.3392249777398821 0  1.751571320346033 0.3651102912045228 0  1.055327852410105 0.111864799513911 0  0.1583785085108421 0.2994699345738728 0  0.1455283439499995 0.3542795598723423 0  2.2 0.35875 0  0.225705107073232 0.05084786997482401 0  0.1455852234589313 0.1166494778469164 0  1.466879772203159 0.3611261772912453 0  1.990280163552011 0.3564754268533217 0  1.17471064520912 0.2990917256188288 0  0.7221925551074015 0.1739659241003985 0  0 0.25625 0  2.2 0.25625 0  2.2 0.05125 0  0 0.15375 0  1.853978576207987 0.35875 0  0.21965520498276 0.1015543880164422 0  1.515638456102889 0.2882700110184686 0  0.09048297387599738 0.3637717362208066 0  2.150453692751374 0.2387066338105111 0  1.323782677156475 0.04897634338873398 0  1.409375 0.03715320121951221 0  1.406484531114799 0.1087852750766809 0  1.134375 0.03715320121951218 0  1.627401732573545 0.04552157221025036 0  0.446875 0.3713289093361426 0  2.045405893604797 0.1105340662939892 0  1.255408269734577 0.1577307500159216 0  2.028125 0.03707597992059326 0  0.04420832937638274 0.128125 0  0.5817551710628505 0.3702615006034757 0  0.1197849154434487 0.2663398672460083 0  1.248258025468107 0.2565907092181813 0  0.1300647302703173 0.0508462728378621 0  0.7738123537510222 0.2761231499240648 0  1.203125 0.0366132337404304 0  0.5444207041612499 0.111205399508622 0  0.8016457771828226 0.1964238426015905 0  2.072662025974815 0.2975086504196739 0  0.4019040438866802 0.2103993403217561 0  0.4677372330974851 0.04827477407630658 0  0.8677218578847617 0.1432970430140788 0  1.058011122005847 0.2758866204059919 0  0.4429405887974043 0.2746184809910084 0  0.5843750000000001 0.03726989681835222 0  0.6318596133730142 0.1128692182767254 0  0.4862628454464408 0.2957029785303028 0  0.7805186758662764 0.3673578380827891 0  1.887722846421017 0.1760882698830035 0  0.3498893058880703 0.256189258793856 0  1.472640588990488 0.1118278026240017 0  1.865937103925594 0.2604137786483804 0
[...]
<PointData  Vectors="f_37"> 
<DataArray  type="Float64"  Name="f_37"  NumberOfComponents="3" format="ascii">-6.0638248422755860e-07 2.0700797481910263e-08 0.0000000000000000e+00  3.6612489937206386e-07 -2.9277742043478330e-08 0.0000000000000000e+00  -4.2302271311379182e-07 -1.5527222930748335e-09 0.0000000000000000e+00  1.5119297262930195e-06 3.6807823092499539e-09 0.0000000000000000e+00  -9.5069283287611868e-07 1.7207570964442954e-07 0.0000000000000000e+00  -8.1529055459193954e-07 5.4279609293296563e-07 0.0000000000000000e+00  -1.7161798431075270e-06 4.3171446215007452e-07 0.0000000000000000e+00  1.3539154000174944e-06 2.5608707126833906e-07 0.0000000000000000e+00  2.7976458987803024e-06 -7.2864120878021696e-07 0.0000000000000000e+00  -1.2344404873569664e-06 1.9087262285786327e-07 0.0000000000000000e+00  -1.7502345043480115e-06 1.3555449109751675e-06 0.0000000000000000e+00  1.0925253785610522e-06 2.1947974146356109e-06 0.0000000000000000e+00  -3.5407828057423806e-06 -1.5136785215616217e-06 0.0000000000000000e+00  -3.7473532529379697e-06 -8.6349861384410499e-07 0.0000000000000000e+00  -7.6836230168543310e-07 -9.7114591139887152e-08 0.0000000000000000e+00  -1.2690461072101935e-06 1.3051415535266811e-06 0.0000000000000000e+00  -5.1325838534200898e-06 -1.5877352940755380e-07 0.0000000000000000e+00  -5.3530289138328888e-06 -5.8402874346607545e-07 0.0000000000000000e+00  -3.4819605819461349e-06 6.2766914574287895e-07 0.0000000000000000e+00  1.1325789023779163e-06 -2.2530972299896403e-06 0.0000000000000000e+00  -1.3664380699358038e-06 -2.2029548762035794e-06 0.0000000000000000e+00  -2.7241472122669582e-06 -1.1204218633875007e-06 0.0000000000000000e+00  1.3285636841763059e-06 -1.5666745400297056e-09 0.0000000000000000e+00  2.2008319223845129e-06 -6.2974641742844389e-08 0.0000000000000000e+00  8.4967322983228417e-07 1.0079305929126491e-06 0.0000000000000000e+00  1.5000025455858050e+00 9.0278301732437611e-08 0.0000000000000000e+00  -5.7093498297231458e-06 4.0877626588391042e-07 0.0000000000000000e+00  -1.4143653549987068e-06 -1.3835799351345787e-07 0.0000000000000000e+00  -1.6669049251750267e-06 -8.1342257082520326e-09 0.0000000000000000e+00  -2.7047071217390816e-06 1.0130844521109186e-07 0.0000000000000000e+00  -9.8982226314308780e-07 -2.0047018832582678e-08 0.0000000000000000e+00  3.7284394341688834e-07 -3.7924303077834549e-07 0.0000000000000000e+00  3.0399421752752388e-06 -7.6118314476323086e-07 0.0000000000000000e+00  7.1853287043727042e-06 -6.3821678502572925e-07 0.0000000000000000e+00  -3.9488987114979602e-06 -6.6545796701991143e-07 0.0000000000000000e+00  2.3602247272203644e-08 -5.2699227545975743e-08 0.0000000000000000e+00  -8.0681205472482509e-07 -1.5811738884108370e-07 0.0000000000000000e+00  3.6455671492280209e-06 3.7637332879607844e-07 0.0000000000000000e+00  -7.3534374266068862e-06 3.9909762573284156e-07 0.0000000000000000e+00  9.5902686108422008e-01 5.2856743528990079e-02 0.0000000000000000e+00  1.0808584904954617e+00 6.8317713123564869e-02 0.0000000000000000e+00  6.1943701418181918e-01 -5.2986436440221135e-02 0.0000000000000000e+00  9.9252671515146118e-01 -4.8683018188799852e-02 0.0000000000000000e+00  1.2451361287420633e+00 -8.8672957831789426e-03 0.0000000000000000e+00  2.9272997331280504e-01 -2.8896724619264756e-02 0.0000000000000000e+00  1.2097604814764285e+00 -2.4488155337056783e-02 0.0000000000000000e+00  -1.8564876443458042e-06 3.3838871373545239e-09 0.0000000000000000e+00  -8.1943974389941093e-07 -3.7003280964340513e-09 0.0000000000000000e+00  -1.0004239391739021e-06 9.2133100105139434e-08 0.0000000000000000e+00  1.1960376149642338e+00 -4.8326363778214204e-03 0.0000000000000000e+00  -8.2794440842756094e-07 1.7015146671943945e-07 0.0000000000000000e+00  -1.2385827871741633e-06 3.1963725221223983e-07 0.0000000000000000e+00  1.3632817002547484e+00 7.7730621097739875e-03 0.0000000000000000e+00  -2.7176688744222627e-06 7.4273783735646909e-07 0.0000000000000000e+00  -1.2494211676866037e-06 6.1766469383805966e-07 0.0000000000000000e+00  2.5329449584981508e-06 7.5579949412267631e-07 0.0000000000000000e+00  2.4153948757346867e-06 -8.0503622546562071e-07 0.0000000000000000e+00  -2.8675218881398425e-06 -3.7622641323420285e-07 0.0000000000000000e+00  -3.9990149034749556e-07 6.9641022948963286e-09 0.0000000000000000e+00  2.9056419619141627e-07 6.3371305765476473e-08 0.0000000000000000e+00  6.4910591306114479e-07 1.3489419377510490e-07 0.0000000000000000e+00  -3.0188994569490197e-06 1.0742920137028200e-07 0.0000000000000000e+00  -3.2149872659658568e-06 -4.5084529903960425e-08 0.0000000000000000e+00  1.4199732094698900e+00 3.7618157357012169e-02 0.0000000000000000e+00  7.6124339936177091e-06 3.0812938156659730e-07 0.0000000000000000e+00  1.3096436832115566e+00 2.6414908306763154e-02 0.0000000000000000e+00  1.6287756200203038e+00 -4.8552171185372237e-02 0.0000000000000000e+00  1.3622420860279980e+00 2.3078110917912769e-02 0.0000000000000000e+00  1.4573115305693594e+00 6.0053512229094413e-02 0.0000000000000000e+00  1.9585897974707858e+00 2.8703154277359366e-02 0.0000000000000000e+00  1.2116902748508405e+00 1.0436288003258308e-03 0.0000000000000000e+00  1.2330927422255760e+00 4.6531480319809996e-03 0.0000000000000000e+00  1.2760554681339491e+00 -1.1507360847601214e-02 0.0000000000000000e+00  1.6380311122930731e+00 -1.1589147916744760e-01 0.0000000000000000e+00  1.5959334779164551e+00 9.4343673316994434e-02 0.0000000000000000e+00  1.8665027770552958e+00 7.5886476559605849e-03 0.0000000000000000e+00  1.1249986008258102e+00 -1.4770199257377758e-07 0.0000000000000000e+00  1.1250027577291530e+00 4.7500736979044188e-08 0.0000000000000000e+00  1.7809359639570221e+00 -1.6324366883604952e-01 0.0000000000000000e+00  1.6280752395621156e+00 1.1967617775775483e-01 0.0000000000000000e+00  7.4948779986284908e-01 1.3231729619077290e-01 0.0000000000000000e+00  1.2640662692334212e+00 -1.7051454575005169e-02 0.0000000000000000e+00  1.4811591944686215e+00 6.6060756100792303e-02 0.0000000000000000e+00  1.1280980413905330e+00 6.2985095512694102e-03 0.0000000000000000e+00  1.4125731685133964e+00 3.7384609505814312e-03 0.0000000000000000e+00  1.4192935815664967e+00 -2.9789353392092204e-02 0.0000000000000000e+00  1.2733934465489203e+00 -7.8420956818073505e-03 0.0000000000000000e+00  1.5508078196216581e+00 -1.3622637466582677e-01 0.0000000000000000e+00  1.2010112985227688e+00 1.2350481501317567e-02 0.0000000000000000e+00  1.2443689446536979e+00 -1.4332839823438115e-02 0.0000000000000000e+00  1.4153172453185483e+00 -4.4408489902229972e-04 0.0000000000000000e+00  1.1840864835077232e+00 -1.1345255115555441e-04 0.0000000000000000e+00  1.4150767995193878e+00 -1.6325220324867652e-02 0.0000000000000000e+00  1.3380204136658824e+00 -1.4864840635139485e-02 0.0000000000000000e+00  1.0819422557636249e+00 -3.7738975943583053e-02 0.0000000000000000e+00  1.0903981236428284e+00 -2.7978613322133878e-02 0.0000000000000000e+00  -3.3417314225632744e-01 -2.5479039260823493e-02 0.0000000000000000e+00  1.7730349940951182e+00 1.2633673483816651e-01 0.0000000000000000e+00  3.7826951273969384e-01 -6.8173282026051885e-02 0.0000000000000000e+00  1.2328388832995725e+00 -3.6790851460071973e-02 0.0000000000000000e+00  1.1819250160984971e+00 2.5551287328014527e-01 0.0000000000000000e+00  1.3797566231627760e+00 -7.3689423157711539e-03 0.0000000000000000e+00  8.2905245243638315e-01 6.0734587744769142e-02 0.0000000000000000e+00  1.3810687945541014e+00 2.1742057525903852e-01 0.0000000000000000e+00  9.8768692651713375e-01 3.4864345833413905e-02 0.0000000000000000e+00  3.7474588106627766e-07 -2.5603031888140701e-08 0.0000000000000000e+00  1.8381185187370219e+00 -5.7229109107195648e-02 0.0000000000000000e+00  1.1434978624442611e+00 -2.5633836917717800e-01 0.0000000000000000e+00  1.5590344935077953e+00 -1.8092201112490304e-02 0.0000000000000000e+00  -1.0223398347315983e-06 5.8592238309454206e-09 0.0000000000000000e+00  1.0167904162997361e+00 -3.0204458021541565e-03 0.0000000000000000e+00  -1.0843639995121920e-06 -9.7455815681368398e-07 0.0000000000000000e+00  -6.8812227345517132e-06 2.7566544090987745e-07 0.0000000000000000e+00  1.0607636155628750e+00 -7.7642146937617604e-02 0.0000000000000000e+00  1.5549443120345318e-06 -3.0411620280527855e-08 0.0000000000000000e+00  1.8278896217282277e+00 8.2625905220444981e-02 0.0000000000000000e+00  1.0600157403900461e+00 -1.9663790104349547e-02 0.0000000000000000e+00  1.7982495967879650e+00 -1.1350174774746605e-01 0.0000000000000000e+00  -5.1500301189302014e-06 -1.7934026165221747e-07 0.0000000000000000e+00  1.7982561850356020e+00 -1.4235475961554772e-01 0.0000000000000000e+00  3.6764791003013276e-06 1.1574887228439369e-06 0.0000000000000000e+00  1.1014743415627191e+00 -4.7504793769693474e-03 0.0000000000000000e+00  1.5881439026060846e+00 1.2737493164989203e-01 0.0000000000000000e+00  4.7561910277427471e-07 -2.7478811302124308e-07 0.0000000000000000e+00  1.7189368520010615e+00 7.7835326412555222e-02 0.0000000000000000e+00  1.3595854679286439e+00 -3.0253303330560433e-01 0.0000000000000000e+00  1.3399532696110121e+00 -1.2268194719668436e-01 0.0000000000000000e+00  1.3729960630920657e+00 1.2478483509765603e-01 0.0000000000000000e+00  -9.5532739190017911e-07 7.9047176196177525e-09 0.0000000000000000e+00  1.2879174150952448e+00 3.1164048405998405e-02 0.0000000000000000e+00  1.0909115515005028e+00 -1.1141092848742021e-02 0.0000000000000000e+00  1.7767263494220344e-06 -1.0155168732137820e-06 0.0000000000000000e+00  1.2245082412211830e+00 6.2045688066678324e-02 0.0000000000000000e+00  8.6460453560147821e-01 7.9527399692578896e-02 0.0000000000000000e+00  1.0678554165871108e+00 -2.4712573928088039e-02 0.0000000000000000e+00  1.0097733704973832e+00 -7.9857155950622538e-02 0.0000000000000000e+00  1.0676004489789301e+00 8.3607367372202108e-03 0.0000000000000000e+00  1.9202326787539430e+00 1.8377003612758702e-01 0.0000000000000000e+00  1.3356282133616426e+00 -2.1639226016029980e-02 0.0000000000000000e+00  1.1540766596518891e-07 6.0407924345364896e-08 0.0000000000000000e+00  7.4157492555944516e-06 -3.6333716660554154e-07 0.0000000000000000e+00  -7.8112917759387882e-07 -5.6400748883387352e-08 0.0000000000000000e+00  6.5625204661355552e-01 2.3251313871183178e-08 0.0000000000000000e+00  3.4594216199215088e-06 2.4800136100663085e-07 0.0000000000000000e+00  1.0582630776141018e+00 1.9186516089652158e-02 0.0000000000000000e+00  1.6060406138757399e+00 9.2803205434341091e-02 0.0000000000000000e+00  1.2193064169899595e+00 7.1393768627214457e-03 0.0000000000000000e+00  -2.7763165347681721e-06 9.0172590139059455e-09 0.0000000000000000e+00  -1.5610898903595142e-06 7.0332228898313448e-07 0.0000000000000000e+00  -5.2472164045239620e-06 -6.6061867659886358e-08 0.0000000000000000e+00  -6.8195762887506849e-08 1.4597769810458700e-07 0.0000000000000000e+00  -7.4230479686917662e-07 8.9707058149870257e-09 0.0000000000000000e+00  1.0589427794413122e-06 1.8290858047169843e-07 0.0000000000000000e+00  -4.2951502334367109e-06 1.6123255532526242e-07 0.0000000000000000e+00  -4.6864565472472014e-06 -1.7656696766627247e-07 0.0000000000000000e+00  2.4164149335863290e-07 -8.8742554458494791e-09 0.0000000000000000e+00  3.3377175392163242e-07 9.9136854460361093e-09 0.0000000000000000e+00  1.1941616009512917e-06 -8.0727711379380727e-08 0.0000000000000000e+00  -8.3047332477959582e-07 1.4400563391235951e-07 0.0000000000000000e+00  -4.5260642606062597e-06 6.4461190180878434e-07 0.0000000000000000e+00  -8.2902990638612391e-06 -6.0077875206192746e-07 0.0000000000000000e+00  -1.6361600881231600e-06 -1.4055184091504702e-07 0.0000000000000000e+00  8.6246235113965679e-07 2.0560151656103384e-07 0.0000000000000000e+00  -1.0059998062372934e-06 -5.6909024432743393e-08 0.0000000000000000e+00  -4.8340625477194060e-06 -9.3046678407141682e-08 0.0000000000000000e+00  7.1558328338734412e-01 -4.6098944150595927e-02 0.0000000000000000e+00  9.0016348842573757e-01 4.2058734612570162e-02 0.0000000000000000e+00  8.7817280481123705e-01 -2.3239223353399636e-02 0.0000000000000000e+00  1.0127528665747985e+00 1.4823873924244495e-02 0.0000000000000000e+00  1.6595906909220266e+00 -6.7806374733704822e-02 0.0000000000000000e+00  -1.6131874331547187e-04 7.2952953833573661e-03 0.0000000000000000e+00  5.6138106910450118e-02 1.2181850622822746e-02 0.0000000000000000e+00  1.3715537099239334e+00 9.7433557266218301e-02 0.0000000000000000e+00  1.0340634956476822e+00 -4.1215719902507708e-05 0.0000000000000000e+00  1.0146862417919160e+00 -3.8502146186108026e-02 0.0000000000000000e+00  1.3294756004178665e+00 -4.5810590799150376e-02 0.0000000000000000e+00  9.0332467921514359e-01 2.1168443892464160e-02 0.0000000000000000e+00  1.2262481935196281e+00 -3.7884864134704742e-03 0.0000000000000000e+00  1.2048388256212157e+00 -1.0866521187251683e-02 0.0000000000000000e+00  1.2167080747464454e+00 3.7227778456407671e-03 0.0000000000000000e+00  1.1496734889959614e+00 -1.9011466281325540e-02 0.0000000000000000e+00  9.6107970332811354e-01 5.3844925539102222e-04 0.0000000000000000e+00  9.9496003955915635e-01 5.7600185812496651e-04 0.0000000000000000e+00  8.7689744838464423e-01 -5.1818843316236759e-03 0.0000000000000000e+00  8.0521245382342821e-01 2.7757617721727301e-02 0.0000000000000000e+00  2.3334088122551330e-01 4.9460714321546563e-02 0.0000000000000000e+00  1.2054746076910481e+00 -7.4982824891917890e-02 0.0000000000000000e+00  9.7560220710518175e-01 -1.2139355381630761e-01 0.0000000000000000e+00  1.1997674434821213e+00 -1.6076670010727703e-01 0.0000000000000000e+00  1.5962961037166470e+00 -1.7530774006086450e-01 0.0000000000000000e+00  1.3136123402289712e+00 3.1432417949688957e-02 0.0000000000000000e+00  1.5327025913283681e+00 -2.5329561351387541e-02 0.0000000000000000e+00  1.4834856008410440e+00 3.1889600908606604e-02 0.0000000000000000e+00  1.1167099111002636e+00 3.2782601396746727e-02 0.0000000000000000e+00  1.4337301662011546e+00 -1.1396637451260158e-01 0.0000000000000000e+00  1.4886806720509651e+00 -1.0455511595923106e-01 0.0000000000000000e+00  9.6955834282215803e-01 -7.1210337630306306e-02 0.0000000000000000e+00  8.0819229623134078e-02 -5.8756901146456604e-02 0.0000000000000000e+00  2.9401394465960579e-01 2.0891151945841499e-02 0.0000000000000000e+00  1.2769874992596197e+00 -1.1277540034592675e-02 0.0000000000000000e+00  1.0279848599568282e+00 -9.4969557901327713e-03 0.0000000000000000e+00  1.0594178546434259e+00 -2.6441471608789409e-02 0.0000000000000000e+00  1.5224096886370995e+00 -6.7355468277591757e-02 0.0000000000000000e+00  7.7834575822327368e-01 3.3410128474350334e-02 0.0000000000000000e+00  9.6870534479129966e-01 3.0855961154370140e-03 0.0000000000000000e+00  1.3411734241144369e+00 -1.9451698337571988e-02 0.0000000000000000e+00  1.0457854942060816e+00 1.9218414644493770e-02 0.0000000000000000e+00  9.5192202417785998e-01 8.9732539308458523e-03 0.0000000000000000e+00  6.5624906998771393e-01 9.1387348055935635e-08 0.0000000000000000e+00  1.0994228294447697e+00 5.3372129703910733e-02 0.0000000000000000e+00  1.5700162538545455e+00 3.8257201604225605e-02 0.0000000000000000e+00  1.4874588984156683e+00 8.4277823901890980e-03 0.0000000000000000e+00  9.4627127388565713e-01 1.0294145020229763e-01 0.0000000000000000e+00  1.0690229632606303e+00 6.5545374830656658e-02 0.0000000000000000e+00  7.2728113261926319e-01 -7.9723917277351401e-03 0.0000000000000000e+00  8.2834644137013258e-01 9.8520420026776634e-02 0.0000000000000000e+00  1.4710427019527981e+00 2.7260574711297631e-02 0.0000000000000000e+00  1.6221959044185696e+00 1.6759933015135631e-01 0.0000000000000000e+00  1.2305058030678131e+00 3.8405044617874570e-02 0.0000000000000000e+00  1.4303319477341556e+00 5.4669186496888796e-02 0.0000000000000000e+00  1.6094196252857749e+00 -1.7800428713884365e-02 0.0000000000000000e+00  1.4894309314152292e+00 -1.3282762031871498e-01 0.0000000000000000e+00  1.1079392112411859e+00 2.2728106018834307e-02 0.0000000000000000e+00  1.2430680416407067e+00 -9.5458342728326328e-03 0.0000000000000000e+00  1.2406538395614439e+00 -7.9409109112158220e-04 0.0000000000000000e+00  8.5927096560038452e-01 4.4444455640555340e-03 0.0000000000000000e+00  1.6503638416465245e+00 1.0790200954389934e-01 0.0000000000000000e+00  9.4151775908374746e-01 9.3658702690343959e-02 0.0000000000000000e+00  1.2796310623549354e+00 -1.1323349575925113e-02 0.0000000000000000e+00  1.2233852428150878e+00 1.6073556738035608e-01 0.0000000000000000e+00  9.5610150438870134e-01 -2.2652649210937837e-02 0.0000000000000000e+00  1.2158183105832370e+00 -1.0819047294317929e-02 0.0000000000000000e+00  1.3606974248970158e+00 9.6374756787023577e-02 0.0000000000000000e+00  1.4323936436710398e+00 -2.4162895532900790e-02 0.0000000000000000e+00  1.2281886507457245e+00 2.5806356990992923e-03 0.0000000000000000e+00  1.4070545109965877e+00 -4.0647878667711664e-03 0.0000000000000000e+00  1.2923456580473822e+00 -4.6885510104692094e-02 0.0000000000000000e+00  1.4811078440835854e+00 3.4249385712383589e-03 0.0000000000000000e+00  7.4374228361159378e-01 -1.6320588810832683e-02 0.0000000000000000e+00  6.5641095010289852e-01 1.4717307145284131e-03 0.0000000000000000e+00  7.0872407323370323e-01 2.0338592028712132e-02 0.0000000000000000e+00  7.9220429701183959e-01 -8.5820392442766363e-04 0.0000000000000000e+00  1.2234942407157827e+00 5.1112014045891635e-03 0.0000000000000000e+00  8.3717656155667708e-01 2.6869956538970682e-03 0.0000000000000000e+00  1.2730319880044023e+00 3.1611327988118665e-02 0.0000000000000000e+00  1.3376980880917217e+00 -1.3797152536837319e-02 0.0000000000000000e+00  8.0870971181117102e-01 1.2111322788455854e-01 0.0000000000000000e+00  8.3256375046912834e-01 3.6092543114783000e-02 0.0000000000000000e+00  1.2966558518187286e+00 -2.5272739250132299e-02 0.0000000000000000e+00  1.3888354456079179e+00 4.8915658881695807e-02 0.0000000000000000e+00  5.7108152087161868e-01 -3.6700782887773681e-03 0.0000000000000000e+00  1.4060448176181277e+00 -3.2215052449955650e-02 0.0000000000000000e+00  7.8008398013087832e-01 4.8345456300804193e-03 0.0000000000000000e+00  8.7601969099770294e-01 5.9404978169018720e-03 0.0000000000000000e+00  7.3878853335729877e-01 -7.9146786310107187e-02 0.0000000000000000e+00  1.1702101487669414e+00 -4.3076482177241693e-02 0.0000000000000000e+00  7.5034609088600068e-01 5.8221819352642082e-03 0.0000000000000000e+00  1.5030305929764787e+00 2.8989132786282189e-02 0.0000000000000000e+00  1.5285371003939938e+00 4.7603114571949307e-01 0.0000000000000000e+00  1.0046711718747852e+00 1.8213667807517553e-01 0.0000000000000000e+00  8.4907220880036915e-01 -5.4959287663413259e-04 0.0000000000000000e+00  1.3192329538053766e+00 -1.2600957240219957e-01 0.0000000000000000e+00  1.4487558286317994e+00 -5.4615114301710765e-01 0.0000000000000000e+00  7.7498437358390238e-01 1.3134529146370177e-03 0.0000000000000000e+00  8.8749898068465494e-01 7.9972576216070764e-04 0.0000000000000000e+00  1.5478711653412414e+00 -5.7707704396437944e-02 0.0000000000000000e+00  3.4189207059694576e-01 1.0670085916482214e-01 0.0000000000000000e+00  1.4062540455625052e+00 1.8253865310221536e-07 0.0000000000000000e+00  1.2586044973145523e+00 -1.1847254686776849e-02 0.0000000000000000e+00  8.4799497829747061e-01 -4.4656980005192674e-04 0.0000000000000000e+00  1.4062506240868002e+00 9.7055972698803713e-08 0.0000000000000000e+00  8.3692999636904286e-01 5.6039743383735196e-03 0.0000000000000000e+00  1.8371035333645847e+00 -3.3042681440926208e-01 0.0000000000000000e+00  1.4815269672715596e+00 -3.5034052857648011e-02 0.0000000000000000e+00  7.1446473617386752e-01 9.8580818890248084e-02 0.0000000000000000e+00  1.2536360879144142e+00 -1.3522824203294554e-02 0.0000000000000000e+00  7.0914628202612118e-01 -2.2502503492339444e-03 0.0000000000000000e+00  5.5480184937441912e-01 -1.4772150419041920e-02 0.0000000000000000e+00  1.4242219205570807e+00 -4.3121913247649961e-03 0.0000000000000000e+00  4.9167699744390864e-01 -1.5660612884462539e-02 0.0000000000000000e+00  7.2978292253499233e-01 5.6602037668078897e-03 0.0000000000000000e+00  1.3094630840651857e+00 -4.2