<?xml version="1.0"?>
<VTKFile type="UnstructuredGrid"  version="0.1"  >
<UnstructuredGrid>
<Piece  NumberOfPoints="2426" NumberOfCells="4534">
<Points>
<DataArray  type="Float64"  NumberOfComponents="3"  format="ascii">0 0.41 0  0 0 0  2.2 0 0  2.2 0.41 0  0.2404508497187474 0.2293892626146237 0  0.25 0.2 0  0.2404508497187474 0.1706107373853764 0  0.2154508497187474 0.1524471741852423 0  0.1845491502812526 0.1524471741852423 0  0.1595491502812526 0.1706107373853764 0  0.15 0.2 0  0.1595491502812526 0.2293892626146237 0  0.1845491502812527 0.2475528258147577 0  0.2154508497187474 0.2475528258147577 0  0.5404508497187474 0.2293892626146237 0  0.55 0.2 0  0.5404508497187474 0.1706107373853764 0  0.5154508497187473 0.1524471741852423 0  0.4845491502812526 0.1524471741852423 0  0.4595491502812526 0.1706107373853764 0  0.45 0.2 0  0.4595491502812526 0.2293892626146237 0  0.4845491502812526 0.2475528258147577 0  0.5154508497187473 0.2475528258147577 0  1.1 0 0  0 0.205 0  1.1 0.41 0  0.55 0 0  0.55 0.41 0  0.275 0 0  0.275 0.41 0  1.65 0.41 0  1.65 0 0  1.375 0 0  1.375 0.41 0  1.925 0 0  1.925 0.41 0  0.8250000000000001 0.41 0  0.8250000000000001 0 0  1.5125 0.205 0  1.7875 0.205 0  0.9625000000000001 0.205 0  1.2375 0.205 0  2.2 0.205 0  0.7560964076246335 0.2151713709677419 0  1.99375 0.2152743902439024 0  2.0625 0 0  0.6875 0 0  2.0625 0.41 0  2.2 0.3075 0  0.6875 0.41 0  1.7875 0.41 0  1.375 0.1486128048780488 0  1.5125 0 0  1.7875 0 0  1.5125 0.41 0  0.9625000000000001 0 0  0.9625000000000001 0.41 0  0.4125 0 0  0.1375 0 0  0.1375 0.41 0  0.4125 0.41 0  1.2375 0 0  1.1 0.1486128048780487 0  1.2375 0.41 0  1.65 0.1486128048780487 0  1.126715909090909 0.2793064024390244 0  1.676715909090909 0.2793064024390244 0  1.348284090909091 0.2793064024390244 0  0.34375 0.3032389320646208 0  1.894702181800738 0.1282910975492754 0  2.092797818199262 0.1282910975492754 0  1.85625 0.3075 0  0.8630851210521902 0.286932093388664 0  0.89375 0.1025 0  0.35 0.1090282786671641 0  0 0.3075 0  0 0.1025 0  0.6526217841291382 0.288229645480046 0  0.7562500000000001 0.09660248895515888 0  0.6568633732316684 0.1557582854763441 0  2.099172119769978 0.25625 0  1.002356446954348 0.1010393851523063 0  1.99375 0.08395950269330846 0  1.459960956013612 0.3075 0  1.569025960719943 0.2986889805672169 0  1.03125 0.3278689922742084 0  0.75625 0.3247156761655783 0  1.959375 0.3126371951219512 0  1.749222215368287 0.1025 0  1.275777784631713 0.1025 0  2.2 0.1025 0  1.225938124459196 0.3075 0  1.550777784631713 0.1025 0  1.44375 0.07430640243902442 0  1.16875 0.07430640243902437 0  0.3528655045338512 0.2063263890916129 0  0.5890337614812103 0.08775733857679162 0  0.8504912436891263 0.190072835691683 0  1.899250267340833 0.2229966846119207 0  0.1020898364287272 0.3140258291809757 0  1.766482954545455 0.2934032012195123 0  1.051658316544432 0.2265720188842194 0  0.2 0.3400647632937836 0  1.421109702350723 0.2261157654379721 0  0.4812500000000001 0.41 0  0.4324401666997539 0.3216425986889796 0  0.098916018031319 0.09171660955420841 0  0.9508742791313441 0.2921736960864468 0  2.13125 0 0  2.118919042110979 0.3422084711244843 0  1.30625 0.41 0  0.20625 0 0  1.597888256393107 0.2173787389261347 0  0.4812500000000001 0 0  0.4324082967851086 0.08384041677422771 0  1.829299675393195 0.07400700849299596 0  0.568219932524165 0.3212274660843853 0  1.71875 0.41 0  0.268005226542646 0.08512186835670006 0  1.16875 0.41 0  2.038220665644273 0.332420740103091 0  0.6678017527842831 0.07701763866051195 0  0.89375 0.41 0  0.5111435174287687 0.07335351331957608 0  0.176193934632343 0.0734896648625108 0  0.07390688010811153 0.1697064032433452 0  0.05452951551825875 0.25625 0  0.61875 0.41 0  1.452769549894695 0.1548122580621249 0  1.369219062229598 0.07430640243902442 0  1.30625 0 0  1.720943423819132 0.1714577452753128 0  1.157188124459196 0.205 0  1.094219062229598 0.07430640243902437 0  1.304056576180868 0.1714577452753128 0  1.67579304192913 0.07430640243902437 0  0.2672907219039591 0.3037570723459566 0  1.209670467133757 0.1362100266964769 0  1.58125 0 0  1.03125 0 0  0.06875000000000001 0.41 0  0 0.35875 0  1.58125 0.41 0  1.631724228912893 0.3381867502687533 0  0.8240147050827157 0.1225233169495944 0  1.825608881788174 0.14499488549201 0  1.85625 0 0  1.44375 0 0  1.44375 0.41 0  1.85625 0.41 0  2.13125 0.41 0  0.7562500000000001 0.41 0  0.7562500000000001 0 0  0.89375 0 0  0.34375 0 0  0.34375 0.41 0  0.20625 0.41 0  0.06875000000000001 0 0  1.16875 0 0  1.03125 0.41 0  0.61875 0 0  1.71875 0 0  1.99375 0 0  1.99375 0.41 0  0.3972301426712326 0.2593842555611471 0  1.340625 0.3489494290853124 0  1.134375 0.3489494290853123 0  1.700180620188976 0.3438659752031281 0  0.5003922072260507 0.341765274319271 0  0.6212513815748759 0.2209216137134851 0  0.6885607720119526 0.215393731583638 0  1.033412357328477 0.1612902025713047 0  2.135782184673599 0.07126652247502523 0  1.668441847249787 0.2129203728327609 0  1.295782514339747 0.2378437748815763 0  1.409375 0.3520314716057996 0  2.129248544730567 0.1906135162504124 0  2.060771381434487 0.1989445750470348 0  2.013252586573865 0.1496169464686054 0  1.942766402200229 0.1734448904596831 0  1.895522487186454 0.06076163953489683 0  2.069553871656643 0.06605731020975725 0  0.9281250000000001 0.3539050257418612 0  1.274680914880868 0.3520219391081363 0  0.3030138498135347 0.2488370856812789 0  0.8223773249563684 0.341761430177996 0  0.9018164060227267 0.2326477848736739 0  0.8143027982392851 0.2440265179987191 0  0.7225087161029304 0.2699907246386231 0  1.614713220494657 0.09473434380863296 0  0.378125 0.3566194660323104 0  0.309375 0.3566194660323104 0  1.72990325744076 0.2380068107952482 0  0.6915936999299305 0.3429472631234433 0  0.6268087624932918 0.3466455500035671 0  1.356580098625191 0.2120393231351682 0  0.3060160055995138 0.1590148921620778 0  0.3954648733249218 0.156380553890791 0  2.034370752044885 0.2668681600792073 0  1.51768709249349 0.3426260931494756 0  1.561883724969884 0.1650446847858835 0  1.197344062229598 0.2523725417393646 0  0.9281250000000001 0.05124999999999999 0  1.804085235518364 0.3468178408964637 0  1.817887819205233 0.2589243285818559 0  0.9107805776841645 0.1653834539923287 0  1.905897727272727 0.3485060975609756 0  0 0.05125 0  0.844212276491354 0.0614201194265309 0  0.378125 0.05244637078450034 0  1.008571329007178 0.2705955969954818 0  0.7724048032149464 0.1559079561351474 0  0.7203054377831548 0.04941826955193545 0  1.192836486056382 0.3562350748565544 0  0.5967108020713719 0.1479294686523888 0  1.28257088594801 0.2944411014911587 0  0.7041890234548132 0.1222025174424443 0  1.474860187679412 0.2504218616229368 0  1.406767003493824 0.2829282258560709 0  0.3201325899091991 0.05890121548989159 0  0.5979220912872258 0.2727591995766724 0  1.845656689180403 0.1998310418452388 0  2.144958525570388 0.2909790873294231 0  2.2 0.15375 0  1.57794966442982 0.3540357145964566 0  0.9483181579620558 0.1214693369582054 0  0.0496154796471391 0.333125 0  1.508991196088596 0.1421783375065625 0  0.09776612425612034 0.2204896805326566 0  1.50436820029908 0.06143401634903343 0  1.223857000523521 0.0823554862453532 0  0.2531953886959507 0.3582003209055908 0  1.153316824384777 0.1289850171317837 0  2.148922302309752 0.1258841779285271 0  1.621993280276081 0.2841214267927899 0  1.550118654119087 0.2461998729100966 0  1.327182649291491 0.1216967252533594 0  1.753125 0.04556020050186112 0  1.271875 0.04556020050186116 0  0.9824282234771738 0.05051969257615314 0  1.039510847866381 0.05683351822678641 0  1.94956388244759 0.1180512551534177 0  1.949997712993411 0.04965831614304109 0  1.771961817615021 0.1530278789497521 0  1.909246823951428 0.2812757146784527 0  1.101974016627944 0.2038045618205013 0  0.7906250000000001 0.0444674049654372 0  1.948575539857022 0.2445328248721197 0  1.697271520964565 0.1233917627620729 0  1.065625 0.3689344961371042 0  1.085849084308977 0.3170853572226867 0  0.9840604787624379 0.3582077516409966 0  1.577403511714593 0.05463601888079143 0  0.05622663515370135 0.05493816910862376 0  0.8762396958822678 0.3392249777398821 0  1.751571320346033 0.3651102912045228 0  1.055327852410105 0.111864799513911 0  0.1583785085108421 0.2994699345738728 0  0.1455283439499995 0.3542795598723423 0  2.2 0.35875 0  0.225705107073232 0.05084786997482401 0  0.1455852234589313 0.1166494778469164 0  1.466879772203159 0.3611261772912453 0  1.990280163552011 0.3564754268533217 0  1.17471064520912 0.2990917256188288 0  0.7221925551074015 0.1739659241003985 0  0 0.25625 0  2.2 0.25625 0  2.2 0.05125 0  0 0.15375 0  1.853978576207987 0.35875 0  0.21965520498276 0.1015543880164422 0  1.515638456102889 0.2882700110184686 0  0.09048297387599738 0.3637717362208066 0  2.150453692751374 0.2387066338105111 0  1.323782677156475 0.04897634338873398 0  1.409375 0.03715320121951221 0  1.406484531114799 0.1087852750766809 0  1.134375 0.03715320121951218 0  1.627401732573545 0.04552157221025036 0  0.446875 0.3713289093361426 0  2.045405893604797 0.1105340662939892 0  1.255408269734577 0.1577307500159216 0  2.028125 0.03707597992059326 0  0.04420832937638274 0.128125 0  0.5817551710628505 0.3702615006034757 0  0.1197849154434487 0.2663398672460083 0  1.248258025468107 0.2565907092181813 0  0.1300647302703173 0.0508462728378621 0  0.7738123537510222 0.2761231499240648 0  1.203125 0.0366132337404304 0  0.5444207041612499 0.111205399508622 0  0.8016457771828226 0.1964238426015905 0  2.072662025974815 0.2975086504196739 0  0.4019040438866802 0.2103993403217561 0  0.4677372330974851 0.04827477407630658 0  0.8677218578847617 0.1432970430140788 0  1.058011122005847 0.2758866204059919 0  0.4429405887974043 0.2746184809910084 0  0.5843750000000001 0.03726989681835222 0  0.6318596133730142 0.1128692182767254 0  0.4862628454464408 0.2957029785303028 0  0.7805186758662764 0.3673578380827891 0  1.887722846421017 0.1760882698830035 0  0.3498893058880703 0.256189258793856 0  1.472640588990488 0.1118278026240017 0  1.865937103925594 0.2604137786483804 0
[...]
<PointData  Vectors="f_37"> 
<DataArray  type="Float64"  Name="f_37"  NumberOfComponents="3" format="ascii">-6.1087475405011137e-07 2.0596545261020931e-08 0.0000000000000000e+00  3.7268026693288655e-07 -2.9522748881380006e-08 0.0000000000000000e+00  -2.6870438893869366e-07 -5.6464149841086102e-09 0.0000000000000000e+00  8.9145152564146491e-07 -1.7133668926417070e-08 0.0000000000000000e+00  -9.8728631026553589e-07 1.4626943883506212e-07 0.0000000000000000e+00  -7.7877399616574843e-07 2.0014533192629597e-07 0.0000000000000000e+00  -1.6671584956216712e-06 3.3919698030318795e-07 0.0000000000000000e+00  1.1845669276718518e-06 2.6778404956499814e-07 0.0000000000000000e+00  2.8553398292516111e-06 -5.0616620079138004e-07 0.0000000000000000e+00  -9.7970789454089000e-07 8.9274180159248203e-08 0.0000000000000000e+00  -1.7380841964945023e-06 1.1191837858644439e-06 0.0000000000000000e+00  7.1752064136836291e-07 2.2309073640593331e-06 0.0000000000000000e+00  -3.7123037762887927e-06 -1.3053555893706404e-06 0.0000000000000000e+00  -3.5505970353097662e-06 -8.7392475106804926e-07 0.0000000000000000e+00  -1.8253384881097323e-06 -1.5203864446549954e-07 0.0000000000000000e+00  -1.4438424473465237e-06 -2.5546690681876359e-07 0.0000000000000000e+00  -4.0063188594349785e-06 -3.5041566786660093e-07 0.0000000000000000e+00  -3.0366757914077460e-06 -9.1489737139576239e-08 0.0000000000000000e+00  -1.6961652655184998e-06 -7.8758343760776376e-08 0.0000000000000000e+00  -1.5546545749209208e-06 -4.6780180887603005e-07 0.0000000000000000e+00  -1.0776141576490738e-06 -3.6703802239721537e-07 0.0000000000000000e+00  -1.0200157709920198e-06 -2.5295947381503416e-07 0.0000000000000000e+00  -7.6978344404080105e-07 1.7316260440135475e-07 0.0000000000000000e+00  -3.4829138490150881e-07 9.4429580511141864e-08 0.0000000000000000e+00  -1.9407989778725588e-06 1.8927925591531683e-07 0.0000000000000000e+00  1.5000025245929620e+00 2.1119889698677179e-08 0.0000000000000000e+00  3.3953706461676161e-08 1.9770727204577154e-07 0.0000000000000000e+00  -2.1868719927249368e-06 -6.6112652885044543e-08 0.0000000000000000e+00  -9.9709332359404176e-07 6.3764586521543698e-08 0.0000000000000000e+00  -2.6217362658590909e-06 9.1468792201559824e-08 0.0000000000000000e+00  -1.0833375001945325e-06 -2.7104895676446858e-08 0.0000000000000000e+00  -7.8412899746336247e-07 -1.2630963757572113e-07 0.0000000000000000e+00  5.4379423533006750e-07 -9.8368588162539243e-08 0.0000000000000000e+00  2.0138405987128826e-06 1.1904910234096455e-07 0.0000000000000000e+00  4.9229258822947069e-07 1.1692185312651209e-07 0.0000000000000000e+00  1.8422828977741223e-07 2.1068243837573328e-08 0.0000000000000000e+00  3.9710407557286409e-07 2.8453597107682635e-08 0.0000000000000000e+00  -1.7451707485473214e-07 -3.5277858447219679e-09 0.0000000000000000e+00  -2.7172004375771562e-06 -1.4415917901969434e-07 0.0000000000000000e+00  1.0490568607779307e+00 -7.4266050825993893e-03 0.0000000000000000e+00  1.1190875412175811e+00 3.9198314659156797e-02 0.0000000000000000e+00  6.0610330681361368e-01 1.2369835134978600e-02 0.0000000000000000e+00  9.0500040825256789e-01 -2.6566842795534878e-02 0.0000000000000000e+00  1.2199475721531550e+00 3.7945955347472637e-02 0.0000000000000000e+00  2.2799567665868853e-01 -5.4270375463377228e-02 0.0000000000000000e+00  1.2275052627047183e+00 -3.9276612469770378e-02 0.0000000000000000e+00  -1.6189721541742581e-06 -4.6522672358839923e-08 0.0000000000000000e+00  -1.7687543944307614e-06 -2.7487806767713578e-08 0.0000000000000000e+00  -1.1328787679315579e-06 -4.2467453766444110e-08 0.0000000000000000e+00  1.2782955322834693e+00 -7.9987020356040502e-04 0.0000000000000000e+00  -1.1748192245987706e-07 7.6040718938482061e-08 0.0000000000000000e+00  -1.0768475638829754e-06 1.0074392383421863e-07 0.0000000000000000e+00  1.3660710364612010e+00 1.9502309068335860e-02 0.0000000000000000e+00  1.0231441269432252e-06 4.0824655263024061e-08 0.0000000000000000e+00  -4.5844578830482196e-07 8.6726712756404902e-08 0.0000000000000000e+00  1.7951021751401932e-06 6.8495220683036274e-08 0.0000000000000000e+00  -3.2969207234053989e-08 -6.3268432727686984e-08 0.0000000000000000e+00  -1.3122275990696564e-06 -5.5460802890855645e-08 0.0000000000000000e+00  -6.5154188123777508e-07 -2.2975840797073523e-08 0.0000000000000000e+00  3.0059033791229951e-07 6.4923671233012838e-08 0.0000000000000000e+00  6.0787933658794774e-07 1.3422009499650215e-07 0.0000000000000000e+00  -2.8046447854189022e-06 1.0813516915245880e-07 0.0000000000000000e+00  1.3813755381970809e-06 -1.9559768549512339e-07 0.0000000000000000e+00  1.3571077775430129e+00 1.6016599071295535e-02 0.0000000000000000e+00  -1.0528834655406528e-06 -2.4964998878920026e-07 0.0000000000000000e+00  1.3484832848716688e+00 7.1739918219753968e-03 0.0000000000000000e+00  1.5863023077723193e+00 -3.0266939112132341e-02 0.0000000000000000e+00  1.4180888583537152e+00 5.5696741632694519e-03 0.0000000000000000e+00  1.5099261888650783e+00 -1.3095776771494868e-03 0.0000000000000000e+00  1.9606073296986901e+00 2.9956484966242286e-02 0.0000000000000000e+00  1.3153343073843724e+00 3.4880749293832061e-03 0.0000000000000000e+00  1.3630862917765401e+00 1.3440284939842064e-02 0.0000000000000000e+00  1.3167790901698413e+00 -8.5100595659745263e-03 0.0000000000000000e+00  1.6566617724352184e+00 -9.8702941467134750e-02 0.0000000000000000e+00  1.5588487759254450e+00 8.2543468713232038e-02 0.0000000000000000e+00  1.8649860380286927e+00 9.8677624258882053e-03 0.0000000000000000e+00  1.1249986013997784e+00 -1.7045524007064059e-07 0.0000000000000000e+00  1.1250027156161460e+00 1.8333773337326538e-08 0.0000000000000000e+00  1.7730460850966074e+00 -1.6588023943219915e-01 0.0000000000000000e+00  1.6481344211094195e+00 1.3681914214676902e-01 0.0000000000000000e+00  7.3365617155771545e-01 1.0635840101451194e-01 0.0000000000000000e+00  1.3149461461489462e+00 -9.6997547526688609e-03 0.0000000000000000e+00  1.4710422794210776e+00 2.7969424685225820e-02 0.0000000000000000e+00  1.1203995072128456e+00 2.0641564873551685e-03 0.0000000000000000e+00  1.3707652626523250e+00 -8.2273228592146148e-03 0.0000000000000000e+00  1.3948598255853093e+00 5.1125576137885254e-03 0.0000000000000000e+00  1.2485246619260324e+00 -2.4450030169661362e-02 0.0000000000000000e+00  1.5468857973255015e+00 -1.2216988010581802e-01 0.0000000000000000e+00  1.2397715024469398e+00 4.1872850222589375e-03 0.0000000000000000e+00  1.2848710739655600e+00 3.2661656411086290e-04 0.0000000000000000e+00  1.3999284589895604e+00 9.3410429451714471e-03 0.0000000000000000e+00  1.2244679455495029e+00 1.6171219162518149e-03 0.0000000000000000e+00  1.4045515407749847e+00 5.8914040545131850e-03 0.0000000000000000e+00  1.3359596963452884e+00 3.5382499099542320e-03 0.0000000000000000e+00  1.0561640142963531e+00 -7.6049989622127704e-03 0.0000000000000000e+00  1.0963970238471159e+00 1.9578686676322773e-03 0.0000000000000000e+00  -3.3027236719327235e-01 -1.5084203226738289e-02 0.0000000000000000e+00  1.7784535620003081e+00 1.2312906997012221e-01 0.0000000000000000e+00  4.2386648936032090e-01 1.7262650654838313e-02 0.0000000000000000e+00  1.2436056956994319e+00 -3.4596838399470180e-04 0.0000000000000000e+00  1.1818511506166733e+00 2.5545634466777190e-01 0.0000000000000000e+00  1.4053457596310877e+00 -2.5659700209366655e-03 0.0000000000000000e+00  1.0069964532548579e+00 -2.1246913901740716e-02 0.0000000000000000e+00  1.3810370817276945e+00 2.1762574247279862e-01 0.0000000000000000e+00  1.1231392810865550e+00 1.2498149015511500e-02 0.0000000000000000e+00  7.7451912319290410e-07 -9.7052734601768976e-09 0.0000000000000000e+00  1.8395013309078931e+00 -6.0755099257019399e-02 0.0000000000000000e+00  1.1435723092582035e+00 -2.5638184589961899e-01 0.0000000000000000e+00  1.6186887104124701e+00 -5.6244963062291500e-02 0.0000000000000000e+00  -5.0733660383499926e-07 -3.7201046533677805e-08 0.0000000000000000e+00  9.5617211527237422e-01 7.8601577348878110e-04 0.0000000000000000e+00  -3.1712192080677749e-06 -1.6480993886815003e-07 0.0000000000000000e+00  -6.8989295087177037e-06 2.7044279817254338e-07 0.0000000000000000e+00  1.1274744796263250e+00 -3.4873179058904101e-02 0.0000000000000000e+00  1.0705570647792488e-06 -2.3916915452524438e-08 0.0000000000000000e+00  1.8255640511143594e+00 7.8636766911588801e-02 0.0000000000000000e+00  1.0232419887030828e+00 -2.4774941925876093e-03 0.0000000000000000e+00  1.7931265588173546e+00 -1.1379111234718726e-01 0.0000000000000000e+00  -3.1348088026398936e-06 -5.6937723972393259e-08 0.0000000000000000e+00  1.7979181182936814e+00 -1.4130605724796649e-01 0.0000000000000000e+00  2.9148590227938533e-07 -1.0947552972336168e-08 0.0000000000000000e+00  1.0615046808162161e+00 4.3848740715238714e-03 0.0000000000000000e+00  1.6013903276951924e+00 1.2776667095858538e-01 0.0000000000000000e+00  -3.0027561683870319e-06 -8.7360227564280365e-08 0.0000000000000000e+00  1.7214697604733038e+00 7.4742171275238106e-02 0.0000000000000000e+00  1.3596526020756410e+00 -3.0229754335728803e-01 0.0000000000000000e+00  1.3399829464625093e+00 -1.2283774161472481e-01 0.0000000000000000e+00  1.3729737435215201e+00 1.2466448424844102e-01 0.0000000000000000e+00  -5.8254561673869512e-08 2.9698938853388626e-08 0.0000000000000000e+00  1.2686618072807172e+00 1.4154542921717578e-02 0.0000000000000000e+00  1.0551082316841762e+00 -9.3416560522202353e-03 0.0000000000000000e+00  1.8726014383075325e-06 -5.7372539911909261e-08 0.0000000000000000e+00  1.2377429920076781e+00 1.8916777731890166e-02 0.0000000000000000e+00  8.5799961926473378e-01 -2.7165528102052087e-02 0.0000000000000000e+00  1.1127776981617068e+00 -5.6616465458574094e-04 0.0000000000000000e+00  1.1554115727222638e+00 1.8338651725315677e-02 0.0000000000000000e+00  1.0318072287138471e+00 -1.2467170198014899e-03 0.0000000000000000e+00  1.9202556238941164e+00 1.8456207991563278e-01 0.0000000000000000e+00  1.4718512948157811e+00 1.5282906046160342e-02 0.0000000000000000e+00  2.4930582983016903e-06 -4.6956482231850714e-08 0.0000000000000000e+00  -6.0374070630242115e-08 9.3943670294620775e-08 0.0000000000000000e+00  -7.9806965039103345e-07 -5.6169376591991160e-08 0.0000000000000000e+00  6.5625203882121885e-01 1.6867613956580818e-08 0.0000000000000000e+00  -5.9087965703977998e-07 -7.3007380550581039e-08 0.0000000000000000e+00  1.0096955394710436e+00 8.7377435065959276e-03 0.0000000000000000e+00  1.6325516771298763e+00 1.2683537516931448e-01 0.0000000000000000e+00  1.3184398569439397e+00 1.7290930430580199e-02 0.0000000000000000e+00  -6.7019937769853422e-07 1.1000330092689509e-08 0.0000000000000000e+00  -4.0267250125216609e-06 1.7724114672853160e-07 0.0000000000000000e+00  6.9499376002616182e-07 1.2862272315163089e-07 0.0000000000000000e+00  -4.5698926786682319e-07 1.1680486794879289e-07 0.0000000000000000e+00  -1.1041877315832572e-06 -1.0280512102490271e-08 0.0000000000000000e+00  7.6826791242249451e-08 6.3487750486306059e-08 0.0000000000000000e+00  -2.9990317844991960e-06 -1.3239713960748186e-07 0.0000000000000000e+00  -1.1856601340000313e-07 -1.5372791970505790e-07 0.0000000000000000e+00  2.4390943369606894e-07 -5.9840115983182885e-09 0.0000000000000000e+00  3.2499067090935223e-07 1.4994066702562074e-08 0.0000000000000000e+00  1.1659507594248515e-06 -8.7124490386197562e-08 0.0000000000000000e+00  -8.2512320050468767e-07 1.4470601519242032e-07 0.0000000000000000e+00  -4.0271944148961478e-07 1.5778678205116312e-08 0.0000000000000000e+00  -1.2771135517461671e-06 2.1418608077353382e-07 0.0000000000000000e+00  -2.7631571471022790e-06 -1.5390384302048516e-07 0.0000000000000000e+00  -2.1158605581390995e-06 4.9121543637055741e-08 0.0000000000000000e+00  -1.4867189926761559e-06 2.4026495332436531e-08 0.0000000000000000e+00  -2.5931764875852108e-06 -1.0140723328766676e-07 0.0000000000000000e+00  7.2330208456364709e-01 -4.3033112366319591e-02 0.0000000000000000e+00  8.6594835388503610e-01 3.1379678699487512e-03 0.0000000000000000e+00  8.6684574208004150e-01 1.1550957410207017e-03 0.0000000000000000e+00  9.4178905511205036e-01 2.7856318776065207e-03 0.0000000000000000e+00  1.6564569225550896e+00 -6.9746147776218750e-02 0.0000000000000000e+00  8.0947023738293898e-03 -6.8039564027865011e-03 0.0000000000000000e+00  4.4531329355285768e-02 -3.3170081219973974e-02 0.0000000000000000e+00  1.1859046993583624e+00 3.9753354049876767e-02 0.0000000000000000e+00  9.7068555738800355e-01 -8.3925310100942951e-05 0.0000000000000000e+00  1.0968275479546326e+00 -2.2791383086660229e-02 0.0000000000000000e+00  1.1961658905038628e+00 -8.4188284212868454e-03 0.0000000000000000e+00  8.1472817722812074e-01 6.3966464568310786e-04 0.0000000000000000e+00  1.2321601762701027e+00 1.5428081957446294e-03 0.0000000000000000e+00  1.1840340395640108e+00 -4.2546731800651334e-02 0.0000000000000000e+00  1.2856378704977314e+00 -1.7041913257473482e-02 0.0000000000000000e+00  1.1669109590221580e+00 -8.2342227479618880e-03 0.0000000000000000e+00  8.6659943238008119e-01 -9.3060128828040473e-04 0.0000000000000000e+00  9.1904448631473790e-01 1.0543427019589480e-03 0.0000000000000000e+00  8.8412169622444259e-01 -2.0997536724262793e-02 0.0000000000000000e+00  8.1737626294585974e-01 7.7836061152228991e-03 0.0000000000000000e+00  2.3150393679979558e-01 5.1123703041805385e-02 0.0000000000000000e+00  1.2265193446979661e+00 -6.8497060596861031e-02 0.0000000000000000e+00  9.2829394982747215e-01 -5.5602211381232780e-02 0.0000000000000000e+00  1.0911399649586877e+00 -1.1484888115543042e-01 0.0000000000000000e+00  1.5584860339607882e+00 -1.7158782451436438e-01 0.0000000000000000e+00  1.2672879532468704e+00 6.0554677126853241e-03 0.0000000000000000e+00  1.5338779395384625e+00 -2.6115135484150721e-02 0.0000000000000000e+00  1.4842602718239619e+00 3.2166428617770700e-02 0.0000000000000000e+00  1.2128224069732600e+00 5.9785777318535939e-03 0.0000000000000000e+00  1.4286391781937016e+00 -1.0852999614022821e-01 0.0000000000000000e+00  1.4823735398021076e+00 -1.0258814190153287e-01 0.0000000000000000e+00  9.8094153576353882e-01 1.7982404946691483e-02 0.0000000000000000e+00  8.0266211424940004e-02 -5.5067781064606525e-02 0.0000000000000000e+00  2.8561168896958844e-01 2.4279934146123259e-02 0.0000000000000000e+00  1.3767651916375414e+00 -7.4157608328980253e-03 0.0000000000000000e+00  9.4165778235157660e-01 6.1777835686135452e-03 0.0000000000000000e+00  1.1765234306576831e+00 -1.0058716399362356e-02 0.0000000000000000e+00  1.4131727052208276e+00 -2.5632070780743022e-02 0.0000000000000000e+00  7.8440913142270208e-01 1.7941191945947798e-02 0.0000000000000000e+00  8.9612626089722003e-01 -6.2345281079588392e-04 0.0000000000000000e+00  1.3849271403359096e+00 3.5438613830714701e-03 0.0000000000000000e+00  1.0542901600784405e+00 7.2890861285695385e-02 0.0000000000000000e+00  8.6911964892794979e-01 2.8735166855878530e-03 0.0000000000000000e+00  6.5624905677404033e-01 8.6970840332828130e-08 0.0000000000000000e+00  1.0819875509232448e+00 5.5310621237820386e-02 0.0000000000000000e+00  1.5677580830955096e+00 3.7461593746913983e-02 0.0000000000000000e+00  1.5931408349410787e+00 -4.8307123620841684e-02 0.0000000000000000e+00  1.0346973763470653e+00 1.1462199775496694e-01 0.0000000000000000e+00  1.0735775867588844e+00 7.0212739564197019e-02 0.0000000000000000e+00  7.4450093724692923e-01 7.3619640108594526e-03 0.0000000000000000e+00  8.0451368593737449e-01 8.9590708655966078e-02 0.0000000000000000e+00  1.4839758216396739e+00 6.2123920723679543e-03 0.0000000000000000e+00  1.6494893354061722e+00 1.6545880049759545e-01 0.0000000000000000e+00  1.3915132989935197e+00 -1.6921163004618111e-02 0.0000000000000000e+00  1.5121478575300629e+00 -1.1173732275280282e-02 0.0000000000000000e+00  1.6077728937576787e+00 -1.7127213507709335e-02 0.0000000000000000e+00  1.5009136559816982e+00 -1.3662104513907058e-01 0.0000000000000000e+00  1.1317115621360168e+00 4.0502649483094941e-02 0.0000000000000000e+00  1.3363281117700585e+00 2.9145854125295217e-03 0.0000000000000000e+00  1.3355828172374515e+00 2.3428536961879604e-02 0.0000000000000000e+00  7.9132567088110073e-01 7.8328357148346652e-03 0.0000000000000000e+00  1.5868269897272953e+00 6.6489085771868628e-02 0.0000000000000000e+00  9.4149670443890532e-01 9.3606292987133896e-02 0.0000000000000000e+00  1.3374407713693632e+00 2.0654844337775415e-03 0.0000000000000000e+00  1.2233582824043647e+00 1.6054761978175655e-01 0.0000000000000000e+00  8.8261415123724463e-01 -2.5682407735727383e-03 0.0000000000000000e+00  1.1969393597277862e+00 5.1601140161363912e-03 0.0000000000000000e+00  1.3609482333870486e+00 9.6659381519080489e-02 0.0000000000000000e+00  1.5021751818652902e+00 1.0432111681022571e-02 0.0000000000000000e+00  1.3451099319793296e+00 1.3661338978093388e-02 0.0000000000000000e+00  1.4326676609008149e+00 6.0853595789791617e-03 0.0000000000000000e+00  1.3597177377816432e+00 -2.3434619540192186e-02 0.0000000000000000e+00  1.4725686855936866e+00 1.1413280825592205e-02 0.0000000000000000e+00  6.6214568125408702e-01 -2.7167348591161091e-03 0.0000000000000000e+00  6.2699048152083370e-01 -3.1323746755247957e-03 0.0000000000000000e+00  7.3699657565488219e-01 5.5011314809051831e-03 0.0000000000000000e+00  8.3326846457755077e-01 -1.0939972432258316e-03 0.0000000000000000e+00  1.3126271912385858e+00 -1.7575169786879362e-03 0.0000000000000000e+00  7.2261738844531187e-01 -6.8952780161328985e-04 0.0000000000000000e+00  1.3268243694820223e+00 2.3805408062297886e-02 0.0000000000000000e+00  1.4351765275731165e+00 -1.5406376643252033e-02 0.0000000000000000e+00  8.0085503936367985e-01 -8.2493024855668628e-03 0.0000000000000000e+00  8.2324596511545933e-01 4.2659434559564023e-02 0.0000000000000000e+00  1.3727454009292546e+00 -2.5268732933009241e-02 0.0000000000000000e+00  1.4007610179207941e+00 1.3404037571906304e-02 0.0000000000000000e+00  5.4448312344316707e-01 -1.7466223740527070e-03 0.0000000000000000e+00  1.3597679784750079e+00 -2.0961588466143002e-02 0.0000000000000000e+00  7.6298824199700166e-01 -1.1127220082588679e-02 0.0000000000000000e+00  7.8385122096103754e-01 -7.0211639387286935e-04 0.0000000000000000e+00  7.3881358904198968e-01 -7.9183944115674532e-02 0.0000000000000000e+00  1.1982096790153671e+00 -4.9868120376548850e-02 0.0000000000000000e+00  6.5192639027015054e-01 6.7462369389108831e-04 0.0000000000000000e+00  1.5141819822857918e+00 1.4600533178501993e-02 0.0000000000000000e+00  1.5283648343885958e+00 4.7607646930276931e-01 0.0000000000000000e+00  1.0045984107685562e+00 1.8217526185642538e-01 0.0000000000000000e+00  7.5085763511887105e-01 1.0116294480428886e-04 0.0000000000000000e+00  1.3189747097000264e+00 -1.2562237900600418e-01 0.0000000000000000e+00  1.4489312110948500e+00 -5.4610914790009379e-01 0.0000000000000000e+00  6.7968164394088515e-01 2.4659274006043506e-03 0.0000000000000000e+00  7.7558379456535498e-01 3.6761779425691947e-03 0.0000000000000000e+00  1.4878548281516530e+00 -7.3580727739961469e-03 0.0000000000000000e+00  3.7290893634590294e-01 6.7999490639755494e-02 0.0000000000000000e+00  1.4062539995775265e+00 1.2771406526689262e-07 0.0000000000000000e+00  1.3109408119334955e+00 1.9396952646008010e-02 0.0000000000000000e+00  7.3983529543770710e-01 -9.4742079037134523e-04 0.0000000000000000e+00  1.4062505972479677e+00 4.1365393733121174e-08 0.0000000000000000e+00  7.3720811430608268e-01 8.8383064708550925e-04 0.0000000000000000e+00  1.8372946393896339e+00 -3.2979736791282083e-01 0.0000000000000000e+00  1.4711828312998230e+00 -9.4110913957516969e-03 0.0000000000000000e+00  7.1441514452720578e-01 9.8560472699190715e-02 0.0000000000000000e+00  1.2409856442840752e+00 3.9263956877693164e-03 0.0000000000000000e+00  6.8287591657458713e-01 -5.8876060114165457e-03 0.0000000000000000e+00  5.2186147802324390e-01 -5.1385959592265221e-03 0.0000000000000000e+00  1.3878983226200197e+00 -5.3806030795397449e-03 0.0000000000000000e+00  4.9321785520266004e-01 -3.4377607912346132e-03 0.0000000000000000e+00  6.5497201242108249e-01 -1.2494849636002971e-03 0.0000000000000000e+00  1.3077281293764240e+00 -4.