<?xml version="1.0"?>
<VTKFile type="UnstructuredGrid"  version="0.1"  >
<UnstructuredGrid>
<Piece  NumberOfPoints="2426" NumberOfCells="4534">
<Points>
<DataArray  type="Float64"  NumberOfComponents="3"  format="ascii">0 0.41 0  0 0 0  2.2 0 0  2.2 0.41 0  0.2404508497187474 0.2293892626146237 0  0.25 0.2 0  0.2404508497187474 0.1706107373853764 0  0.2154508497187474 0.1524471741852423 0  0.1845491502812526 0.1524471741852423 0  0.1595491502812526 0.1706107373853764 0  0.15 0.2 0  0.1595491502812526 0.2293892626146237 0  0.1845491502812527 0.2475528258147577 0  0.2154508497187474 0.2475528258147577 0  0.5404508497187474 0.2293892626146237 0  0.55 0.2 0  0.5404508497187474 0.1706107373853764 0  0.5154508497187473 0.1524471741852423 0  0.4845491502812526 0.1524471741852423 0  0.4595491502812526 0.1706107373853764 0  0.45 0.2 0  0.4595491502812526 0.2293892626146237 0  0.4845491502812526 0.2475528258147577 0  0.5154508497187473 0.2475528258147577 0  1.1 0 0  0 0.205 0  1.1 0.41 0  0.55 0 0  0.55 0.41 0  0.275 0 0  0.275 0.41 0  1.65 0.41 0  1.65 0 0  1.375 0 0  1.375 0.41 0  1.925 0 0  1.925 0.41 0  0.8250000000000001 0.41 0  0.8250000000000001 0 0  1.5125 0.205 0  1.7875 0.205 0  0.9625000000000001 0.205 0  1.2375 0.205 0  2.2 0.205 0  0.7560964076246335 0.2151713709677419 0  1.99375 0.2152743902439024 0  2.0625 0 0  0.6875 0 0  2.0625 0.41 0  2.2 0.3075 0  0.6875 0.41 0  1.7875 0.41 0  1.375 0.1486128048780488 0  1.5125 0 0  1.7875 0 0  1.5125 0.41 0  0.9625000000000001 0 0  0.9625000000000001 0.41 0  0.4125 0 0  0.1375 0 0  0.1375 0.41 0  0.4125 0.41 0  1.2375 0 0  1.1 0.1486128048780487 0  1.2375 0.41 0  1.65 0.1486128048780487 0  1.126715909090909 0.2793064024390244 0  1.676715909090909 0.2793064024390244 0  1.348284090909091 0.2793064024390244 0  0.34375 0.3032389320646208 0  1.894702181800738 0.1282910975492754 0  2.092797818199262 0.1282910975492754 0  1.85625 0.3075 0  0.8630851210521902 0.286932093388664 0  0.89375 0.1025 0  0.35 0.1090282786671641 0  0 0.3075 0  0 0.1025 0  0.6526217841291382 0.288229645480046 0  0.7562500000000001 0.09660248895515888 0  0.6568633732316684 0.1557582854763441 0  2.099172119769978 0.25625 0  1.002356446954348 0.1010393851523063 0  1.99375 0.08395950269330846 0  1.459960956013612 0.3075 0  1.569025960719943 0.2986889805672169 0  1.03125 0.3278689922742084 0  0.75625 0.3247156761655783 0  1.959375 0.3126371951219512 0  1.749222215368287 0.1025 0  1.275777784631713 0.1025 0  2.2 0.1025 0  1.225938124459196 0.3075 0  1.550777784631713 0.1025 0  1.44375 0.07430640243902442 0  1.16875 0.07430640243902437 0  0.3528655045338512 0.2063263890916129 0  0.5890337614812103 0.08775733857679162 0  0.8504912436891263 0.190072835691683 0  1.899250267340833 0.2229966846119207 0  0.1020898364287272 0.3140258291809757 0  1.766482954545455 0.2934032012195123 0  1.051658316544432 0.2265720188842194 0  0.2 0.3400647632937836 0  1.421109702350723 0.2261157654379721 0  0.4812500000000001 0.41 0  0.4324401666997539 0.3216425986889796 0  0.098916018031319 0.09171660955420841 0  0.9508742791313441 0.2921736960864468 0  2.13125 0 0  2.118919042110979 0.3422084711244843 0  1.30625 0.41 0  0.20625 0 0  1.597888256393107 0.2173787389261347 0  0.4812500000000001 0 0  0.4324082967851086 0.08384041677422771 0  1.829299675393195 0.07400700849299596 0  0.568219932524165 0.3212274660843853 0  1.71875 0.41 0  0.268005226542646 0.08512186835670006 0  1.16875 0.41 0  2.038220665644273 0.332420740103091 0  0.6678017527842831 0.07701763866051195 0  0.89375 0.41 0  0.5111435174287687 0.07335351331957608 0  0.176193934632343 0.0734896648625108 0  0.07390688010811153 0.1697064032433452 0  0.05452951551825875 0.25625 0  0.61875 0.41 0  1.452769549894695 0.1548122580621249 0  1.369219062229598 0.07430640243902442 0  1.30625 0 0  1.720943423819132 0.1714577452753128 0  1.157188124459196 0.205 0  1.094219062229598 0.07430640243902437 0  1.304056576180868 0.1714577452753128 0  1.67579304192913 0.07430640243902437 0  0.2672907219039591 0.3037570723459566 0  1.209670467133757 0.1362100266964769 0  1.58125 0 0  1.03125 0 0  0.06875000000000001 0.41 0  0 0.35875 0  1.58125 0.41 0  1.631724228912893 0.3381867502687533 0  0.8240147050827157 0.1225233169495944 0  1.825608881788174 0.14499488549201 0  1.85625 0 0  1.44375 0 0  1.44375 0.41 0  1.85625 0.41 0  2.13125 0.41 0  0.7562500000000001 0.41 0  0.7562500000000001 0 0  0.89375 0 0  0.34375 0 0  0.34375 0.41 0  0.20625 0.41 0  0.06875000000000001 0 0  1.16875 0 0  1.03125 0.41 0  0.61875 0 0  1.71875 0 0  1.99375 0 0  1.99375 0.41 0  0.3972301426712326 0.2593842555611471 0  1.340625 0.3489494290853124 0  1.134375 0.3489494290853123 0  1.700180620188976 0.3438659752031281 0  0.5003922072260507 0.341765274319271 0  0.6212513815748759 0.2209216137134851 0  0.6885607720119526 0.215393731583638 0  1.033412357328477 0.1612902025713047 0  2.135782184673599 0.07126652247502523 0  1.668441847249787 0.2129203728327609 0  1.295782514339747 0.2378437748815763 0  1.409375 0.3520314716057996 0  2.129248544730567 0.1906135162504124 0  2.060771381434487 0.1989445750470348 0  2.013252586573865 0.1496169464686054 0  1.942766402200229 0.1734448904596831 0  1.895522487186454 0.06076163953489683 0  2.069553871656643 0.06605731020975725 0  0.9281250000000001 0.3539050257418612 0  1.274680914880868 0.3520219391081363 0  0.3030138498135347 0.2488370856812789 0  0.8223773249563684 0.341761430177996 0  0.9018164060227267 0.2326477848736739 0  0.8143027982392851 0.2440265179987191 0  0.7225087161029304 0.2699907246386231 0  1.614713220494657 0.09473434380863296 0  0.378125 0.3566194660323104 0  0.309375 0.3566194660323104 0  1.72990325744076 0.2380068107952482 0  0.6915936999299305 0.3429472631234433 0  0.6268087624932918 0.3466455500035671 0  1.356580098625191 0.2120393231351682 0  0.3060160055995138 0.1590148921620778 0  0.3954648733249218 0.156380553890791 0  2.034370752044885 0.2668681600792073 0  1.51768709249349 0.3426260931494756 0  1.561883724969884 0.1650446847858835 0  1.197344062229598 0.2523725417393646 0  0.9281250000000001 0.05124999999999999 0  1.804085235518364 0.3468178408964637 0  1.817887819205233 0.2589243285818559 0  0.9107805776841645 0.1653834539923287 0  1.905897727272727 0.3485060975609756 0  0 0.05125 0  0.844212276491354 0.0614201194265309 0  0.378125 0.05244637078450034 0  1.008571329007178 0.2705955969954818 0  0.7724048032149464 0.1559079561351474 0  0.7203054377831548 0.04941826955193545 0  1.192836486056382 0.3562350748565544 0  0.5967108020713719 0.1479294686523888 0  1.28257088594801 0.2944411014911587 0  0.7041890234548132 0.1222025174424443 0  1.474860187679412 0.2504218616229368 0  1.406767003493824 0.2829282258560709 0  0.3201325899091991 0.05890121548989159 0  0.5979220912872258 0.2727591995766724 0  1.845656689180403 0.1998310418452388 0  2.144958525570388 0.2909790873294231 0  2.2 0.15375 0  1.57794966442982 0.3540357145964566 0  0.9483181579620558 0.1214693369582054 0  0.0496154796471391 0.333125 0  1.508991196088596 0.1421783375065625 0  0.09776612425612034 0.2204896805326566 0  1.50436820029908 0.06143401634903343 0  1.223857000523521 0.0823554862453532 0  0.2531953886959507 0.3582003209055908 0  1.153316824384777 0.1289850171317837 0  2.148922302309752 0.1258841779285271 0  1.621993280276081 0.2841214267927899 0  1.550118654119087 0.2461998729100966 0  1.327182649291491 0.1216967252533594 0  1.753125 0.04556020050186112 0  1.271875 0.04556020050186116 0  0.9824282234771738 0.05051969257615314 0  1.039510847866381 0.05683351822678641 0  1.94956388244759 0.1180512551534177 0  1.949997712993411 0.04965831614304109 0  1.771961817615021 0.1530278789497521 0  1.909246823951428 0.2812757146784527 0  1.101974016627944 0.2038045618205013 0  0.7906250000000001 0.0444674049654372 0  1.948575539857022 0.2445328248721197 0  1.697271520964565 0.1233917627620729 0  1.065625 0.3689344961371042 0  1.085849084308977 0.3170853572226867 0  0.9840604787624379 0.3582077516409966 0  1.577403511714593 0.05463601888079143 0  0.05622663515370135 0.05493816910862376 0  0.8762396958822678 0.3392249777398821 0  1.751571320346033 0.3651102912045228 0  1.055327852410105 0.111864799513911 0  0.1583785085108421 0.2994699345738728 0  0.1455283439499995 0.3542795598723423 0  2.2 0.35875 0  0.225705107073232 0.05084786997482401 0  0.1455852234589313 0.1166494778469164 0  1.466879772203159 0.3611261772912453 0  1.990280163552011 0.3564754268533217 0  1.17471064520912 0.2990917256188288 0  0.7221925551074015 0.1739659241003985 0  0 0.25625 0  2.2 0.25625 0  2.2 0.05125 0  0 0.15375 0  1.853978576207987 0.35875 0  0.21965520498276 0.1015543880164422 0  1.515638456102889 0.2882700110184686 0  0.09048297387599738 0.3637717362208066 0  2.150453692751374 0.2387066338105111 0  1.323782677156475 0.04897634338873398 0  1.409375 0.03715320121951221 0  1.406484531114799 0.1087852750766809 0  1.134375 0.03715320121951218 0  1.627401732573545 0.04552157221025036 0  0.446875 0.3713289093361426 0  2.045405893604797 0.1105340662939892 0  1.255408269734577 0.1577307500159216 0  2.028125 0.03707597992059326 0  0.04420832937638274 0.128125 0  0.5817551710628505 0.3702615006034757 0  0.1197849154434487 0.2663398672460083 0  1.248258025468107 0.2565907092181813 0  0.1300647302703173 0.0508462728378621 0  0.7738123537510222 0.2761231499240648 0  1.203125 0.0366132337404304 0  0.5444207041612499 0.111205399508622 0  0.8016457771828226 0.1964238426015905 0  2.072662025974815 0.2975086504196739 0  0.4019040438866802 0.2103993403217561 0  0.4677372330974851 0.04827477407630658 0  0.8677218578847617 0.1432970430140788 0  1.058011122005847 0.2758866204059919 0  0.4429405887974043 0.2746184809910084 0  0.5843750000000001 0.03726989681835222 0  0.6318596133730142 0.1128692182767254 0  0.4862628454464408 0.2957029785303028 0  0.7805186758662764 0.3673578380827891 0  1.887722846421017 0.1760882698830035 0  0.3498893058880703 0.256189258793856 0  1.472640588990488 0.1118278026240017 0  1.865937103925594 0.2604137786483804 0
[...]
<PointData  Vectors="f_37"> 
<DataArray  type="Float64"  Name="f_37"  NumberOfComponents="3" format="ascii">-6.1203056304953093e-07 2.0364054822150025e-08 0.0000000000000000e+00  3.7351987207581960e-07 -2.9952380836405203e-08 0.0000000000000000e+00  -5.7021026650424192e-07 1.1098556867720221e-09 0.0000000000000000e+00  1.3163587777963707e-06 9.0973556411418010e-09 0.0000000000000000e+00  -9.8449808067104182e-07 9.5551413642463078e-08 0.0000000000000000e+00  -7.7655540887700386e-07 1.0899898750006979e-07 0.0000000000000000e+00  -1.6637274031710128e-06 2.9300341491861474e-07 0.0000000000000000e+00  1.1821730187696400e-06 2.7780614445241492e-07 0.0000000000000000e+00  2.8960552978925881e-06 -4.8305528917973403e-07 0.0000000000000000e+00  -9.6432232357713691e-07 7.0574933749214436e-08 0.0000000000000000e+00  -1.7412637181662917e-06 1.1042259076608234e-06 0.0000000000000000e+00  6.7687653037220197e-07 2.2134188452729321e-06 0.0000000000000000e+00  -3.7602214049254955e-06 -1.3016406000539885e-06 0.0000000000000000e+00  -3.5523274249568887e-06 -8.5092147875038137e-07 0.0000000000000000e+00  -1.9240708502515678e-06 -1.2912154178912433e-07 0.0000000000000000e+00  -1.4231517531038725e-06 -9.3737866017369660e-08 0.0000000000000000e+00  -3.8910326171464822e-06 -3.5525071872641563e-07 0.0000000000000000e+00  -2.9707558019082235e-06 -6.1317657012105947e-08 0.0000000000000000e+00  -1.7992088023620253e-06 -4.6590376384441080e-08 0.0000000000000000e+00  -1.4465699226344681e-06 -3.5196373376036763e-07 0.0000000000000000e+00  -1.0781195484042881e-06 -1.9722609004854682e-07 0.0000000000000000e+00  -1.1362465415472286e-06 -1.3033313568458121e-07 0.0000000000000000e+00  -6.8796290796721701e-07 1.8614368011063034e-07 0.0000000000000000e+00  -4.0799228596785544e-07 1.2998162286542527e-07 0.0000000000000000e+00  -7.5330735790435723e-07 -1.1856189635288202e-07 0.0000000000000000e+00  1.5000025217958046e+00 1.2611900524356661e-08 0.0000000000000000e+00  -9.1966074710289447e-07 -7.9682851661127772e-08 0.0000000000000000e+00  -2.2814990622667259e-06 -6.7521835603969323e-08 0.0000000000000000e+00  -9.2500614459289668e-07 6.3681261144462336e-08 0.0000000000000000e+00  -2.6361720079693895e-06 9.1377236444219118e-08 0.0000000000000000e+00  -1.0743740902439947e-06 -2.6405266724331664e-08 0.0000000000000000e+00  -4.0259153849627891e-07 8.8497275830349432e-09 0.0000000000000000e+00  2.0655179653744273e-07 4.0866481789113775e-08 0.0000000000000000e+00  9.0619659634750611e-07 7.8390598660845604e-08 0.0000000000000000e+00  2.3163247535004140e-06 1.2978020311540325e-07 0.0000000000000000e+00  3.0396905906047780e-07 -6.9087071394429976e-09 0.0000000000000000e+00  -8.3588164338614403e-07 -5.4772914732884599e-08 0.0000000000000000e+00  -7.5755440863331082e-07 -8.7040689054399502e-09 0.0000000000000000e+00  -2.0672018835460902e-06 -1.3005661231158158e-07 0.0000000000000000e+00  1.0378139314459760e+00 -2.6639182953417748e-02 0.0000000000000000e+00  1.1223700013089331e+00 1.6472567227822300e-02 0.0000000000000000e+00  6.1362613141097289e-01 -4.3932406902540801e-03 0.0000000000000000e+00  8.9880520087199378e-01 9.6463635639675374e-03 0.0000000000000000e+00  1.2075049882887170e+00 1.8657007254131289e-02 0.0000000000000000e+00  2.1747018445569377e-01 -4.7614728151428663e-02 0.0000000000000000e+00  1.1808139410031340e+00 -1.9851761549371537e-02 0.0000000000000000e+00  -1.4871550401915983e-06 1.9862040791126482e-09 0.0000000000000000e+00  -1.6731047138531186e-06 -5.4856624784727413e-08 0.0000000000000000e+00  -9.0910987698328004e-07 6.5307272040394106e-10 0.0000000000000000e+00  1.2770674480212392e+00 -4.0529759718660767e-03 0.0000000000000000e+00  -2.2735193338154361e-07 4.1698375525092285e-08 0.0000000000000000e+00  -8.5865123181290572e-09 8.2061920692204217e-08 0.0000000000000000e+00  1.3225202937444025e+00 8.5940691207937389e-03 0.0000000000000000e+00  2.1109765191305141e-06 -7.1303096903800292e-08 0.0000000000000000e+00  -7.0058526700486338e-07 3.1271339698381330e-09 0.0000000000000000e+00  1.3438270535914216e-08 -1.3249668486848365e-07 0.0000000000000000e+00  -1.5619094237512820e-06 8.1311691993481871e-08 0.0000000000000000e+00  1.2399197303994057e-07 5.3556681525199565e-08 0.0000000000000000e+00  -7.1312695024560200e-07 -2.2669218711771685e-08 0.0000000000000000e+00  3.0546262843037769e-07 6.4478154452287357e-08 0.0000000000000000e+00  5.9911775851613291e-07 1.3371454768061196e-07 0.0000000000000000e+00  -2.7505206360812077e-06 1.0953130429501577e-07 0.0000000000000000e+00  1.2710985101357704e-06 5.1671264350674914e-09 0.0000000000000000e+00  1.3874153266507490e+00 2.3168930898922576e-02 0.0000000000000000e+00  -1.2305688968169120e-06 -2.4300098462907133e-08 0.0000000000000000e+00  1.3513861720090976e+00 1.7538984666904643e-02 0.0000000000000000e+00  1.5697226804334492e+00 -1.5723311672735902e-02 0.0000000000000000e+00  1.4412295389809018e+00 -1.7748576482861322e-03 0.0000000000000000e+00  1.5314641026515150e+00 -1.4242797435215535e-02 0.0000000000000000e+00  1.9607688453677623e+00 2.9788171563419882e-02 0.0000000000000000e+00  1.3421810099090259e+00 4.8527408911542761e-04 0.0000000000000000e+00  1.3386464269479423e+00 9.6683245797748053e-03 0.0000000000000000e+00  1.3002630602044696e+00 1.6861200336271537e-03 0.0000000000000000e+00  1.6660644618473042e+00 -1.0259598958521053e-01 0.0000000000000000e+00  1.5524897490427008e+00 7.5006187473142166e-02 0.0000000000000000e+00  1.8646549984827703e+00 9.6915666775717179e-03 0.0000000000000000e+00  1.1249986006607213e+00 -1.7458865476017800e-07 0.0000000000000000e+00  1.1250027096896975e+00 1.3496407135827819e-08 0.0000000000000000e+00  1.7704823237175429e+00 -1.6616267329362197e-01 0.0000000000000000e+00  1.6475276686958582e+00 1.4013190589560609e-01 0.0000000000000000e+00  7.3652067101384722e-01 1.0277949861945566e-01 0.0000000000000000e+00  1.3346888973910371e+00 5.7950184382779355e-03 0.0000000000000000e+00  1.4799663928355604e+00 2.8851948074297262e-02 0.0000000000000000e+00  1.1155697299365275e+00 1.7565919418152779e-03 0.0000000000000000e+00  1.3558216967870615e+00 4.6844715701987701e-03 0.0000000000000000e+00  1.3975418755273032e+00 6.4923260831263631e-03 0.0000000000000000e+00  1.2409226430377265e+00 -1.9203517094793721e-02 0.0000000000000000e+00  1.5484127618035859e+00 -1.1994593804235726e-01 0.0000000000000000e+00  1.2501094110994357e+00 3.9929780054952244e-03 0.0000000000000000e+00  1.2853482298075272e+00 -3.7813315924354804e-04 0.0000000000000000e+00  1.3866500117708649e+00 -1.9484563444280242e-03 0.0000000000000000e+00  1.2282759090234512e+00 1.5128448371621065e-03 0.0000000000000000e+00  1.4194254937090232e+00 -1.8270249053615791e-03 0.0000000000000000e+00  1.3387776843062229e+00 5.5609976583148504e-03 0.0000000000000000e+00  1.0608934658469154e+00 -1.4632974536519306e-03 0.0000000000000000e+00  1.0878175069858018e+00 4.3060237440088896e-04 0.0000000000000000e+00  -3.3031025889409504e-01 -1.5093135784935031e-02 0.0000000000000000e+00  1.7791200342318849e+00 1.2282912381493306e-01 0.0000000000000000e+00  4.2124726424114628e-01 3.4757188392729725e-02 0.0000000000000000e+00  1.2271017340729120e+00 -2.3955557560045720e-02 0.0000000000000000e+00  1.1818643003894089e+00 2.5547882765295010e-01 0.0000000000000000e+00  1.4147164350570052e+00 -8.0947089338614543e-03 0.0000000000000000e+00  1.0080245128090553e+00 -3.8938856892022033e-02 0.0000000000000000e+00  1.3810735141833785e+00 2.1762986079972935e-01 0.0000000000000000e+00  1.1593449915944232e+00 -1.7357746284852909e-02 0.0000000000000000e+00  8.3204935768193525e-07 -8.0313225125448817e-09 0.0000000000000000e+00  1.8392120030715631e+00 -6.0936288062521923e-02 0.0000000000000000e+00  1.1435588964286239e+00 -2.5635904258457703e-01 0.0000000000000000e+00  1.6209198123191184e+00 -6.5075087833806264e-02 0.0000000000000000e+00  -9.0499969164214548e-07 2.1208246970244394e-08 0.0000000000000000e+00  9.5421686425884122e-01 2.3072877657455865e-04 0.0000000000000000e+00  -1.5014654782703783e-06 1.3719959215085571e-07 0.0000000000000000e+00  -6.9102488539678686e-06 2.7073584996097172e-07 0.0000000000000000e+00  1.0893242342101834e+00 -9.7972402489289821e-03 0.0000000000000000e+00  9.9757914165741194e-07 -2.2421917487531601e-08 0.0000000000000000e+00  1.8258677929484672e+00 7.8431957191058319e-02 0.0000000000000000e+00  1.0281913429560745e+00 -4.7622061516713058e-04 0.0000000000000000e+00  1.7927240280286623e+00 -1.1383190964345316e-01 0.0000000000000000e+00  -1.8467680284873263e-06 5.7501821551088033e-08 0.0000000000000000e+00  1.7978579257534524e+00 -1.4132177234763657e-01 0.0000000000000000e+00  -1.5765706623920830e-06 -1.4130031382360462e-07 0.0000000000000000e+00  1.0686431188324994e+00 6.7770574783774910e-04 0.0000000000000000e+00  1.6026308682745267e+00 1.2855561732961049e-01 0.0000000000000000e+00  -2.5908795233023200e-06 7.8385783683605780e-08 0.0000000000000000e+00  1.7218536086853944e+00 7.4747117739055430e-02 0.0000000000000000e+00  1.3596181998879813e+00 -3.0228723381899103e-01 0.0000000000000000e+00  1.3399785030583413e+00 -1.2280459546150675e-01 0.0000000000000000e+00  1.3729771139672493e+00 1.2468618521277479e-01 0.0000000000000000e+00  1.4459658189876426e-08 2.3494024277697627e-08 0.0000000000000000e+00  1.2626457160232825e+00 6.5709305676583940e-04 0.0000000000000000e+00  1.0661234287109966e+00 -5.9206683632215245e-03 0.0000000000000000e+00  3.3572374049836132e-07 1.5580458770847453e-07 0.0000000000000000e+00  1.1977486925390903e+00 2.7257655336655782e-02 0.0000000000000000e+00  8.4313242006671563e-01 -1.2666178738445640e-02 0.0000000000000000e+00  1.1124707491015711e+00 5.9465508477309168e-03 0.0000000000000000e+00  1.1203423102336825e+00 2.5298747125799954e-02 0.0000000000000000e+00  1.0350065000469213e+00 -4.1059170253592205e-03 0.0000000000000000e+00  1.9203237564303481e+00 1.8455932111033105e-01 0.0000000000000000e+00  1.4798076497227448e+00 2.0223658102224033e-02 0.0000000000000000e+00  3.1661922146492128e-06 -6.5137091826613467e-08 0.0000000000000000e+00  -9.1560391170803110e-07 4.8139527546135912e-08 0.0000000000000000e+00  -8.0266977059445300e-07 -5.6883063499498516e-08 0.0000000000000000e+00  6.5625203774517693e-01 1.4880675482123264e-08 0.0000000000000000e+00  -1.8249413853282187e-06 -8.7064582967837790e-08 0.0000000000000000e+00  1.0149752295775754e+00 1.9923575565557665e-03 0.0000000000000000e+00  1.6269556079385894e+00 1.2834819931315428e-01 0.0000000000000000e+00  1.2949950988302610e+00 4.7327165356720428e-03 0.0000000000000000e+00  -5.5293531869254582e-07 7.0906421237648523e-09 0.0000000000000000e+00  -3.7304243106839149e-06 -2.4502383495607709e-08 0.0000000000000000e+00  6.5716359793862454e-07 1.7187443332197011e-09 0.0000000000000000e+00  -8.0402388302090453e-07 8.4216215167972500e-09 0.0000000000000000e+00  -8.3647487101864400e-07 2.3106741544797579e-08 0.0000000000000000e+00  -4.4268496582153260e-07 2.1575538266553565e-08 0.0000000000000000e+00  -2.3753972575016932e-06 -1.9401708719841303e-07 0.0000000000000000e+00  -4.4159070299731065e-07 -1.7005679934164408e-08 0.0000000000000000e+00  2.0826182073999697e-07 -4.4700362453592509e-09 0.0000000000000000e+00  3.5779289033059826e-07 1.5269208088753925e-08 0.0000000000000000e+00  1.1683358339733351e-06 -8.6617798761974451e-08 0.0000000000000000e+00  -8.2142603303514316e-07 1.4390432884416591e-07 0.0000000000000000e+00  1.3398473592787084e-06 -1.0569459068667322e-07 0.0000000000000000e+00  -5.8289674467831161e-07 6.3546340853031801e-08 0.0000000000000000e+00  -2.8596292855008336e-06 -1.8105582284651959e-07 0.0000000000000000e+00  -2.9218944372157181e-06 6.8353529632564724e-08 0.0000000000000000e+00  -1.0203440139482793e-06 -3.9921644853600587e-08 0.0000000000000000e+00  -3.1294176332100582e-06 -2.9126474776181676e-08 0.0000000000000000e+00  7.2409527513734540e-01 -4.3464207068876250e-02 0.0000000000000000e+00  8.5760126604011289e-01 2.4218306881867236e-03 0.0000000000000000e+00  8.7424897951694247e-01 3.6753517628909686e-03 0.0000000000000000e+00  9.3600973721237180e-01 5.1378219929122649e-04 0.0000000000000000e+00  1.6561072879985732e+00 -6.9696748199706046e-02 0.0000000000000000e+00  7.1221843950640693e-03 -1.0959373080598538e-02 0.0000000000000000e+00  3.9325073731063982e-02 -3.8636723805684781e-02 0.0000000000000000e+00  1.1773413278121052e+00 2.7432519941402014e-02 0.0000000000000000e+00  9.7685164443761252e-01 -4.6874268503676052e-04 0.0000000000000000e+00  1.0919367220812983e+00 1.6534214913967137e-02 0.0000000000000000e+00  1.2238668108781174e+00 -3.1423546421759656e-03 0.0000000000000000e+00  8.1054034583263446e-01 5.5223726566012276e-03 0.0000000000000000e+00  1.2062408892517782e+00 2.6744558084185046e-02 0.0000000000000000e+00  1.1843782571163335e+00 7.7751271573245247e-03 0.0000000000000000e+00  1.3308941846270546e+00 8.4649348599560772e-03 0.0000000000000000e+00  1.2004830832605149e+00 -1.7091660062591961e-02 0.0000000000000000e+00  8.6607493587342099e-01 -7.8669384231872756e-04 0.0000000000000000e+00  9.2145496616238620e-01 -5.5803047492882776e-04 0.0000000000000000e+00  8.8069334372805674e-01 -2.3596916471930768e-02 0.0000000000000000e+00  8.1520343480874868e-01 2.4967426054557998e-03 0.0000000000000000e+00  2.3174599174604130e-01 5.1373573636338196e-02 0.0000000000000000e+00  1.2301396237134066e+00 -6.9630801331423034e-02 0.0000000000000000e+00  9.5277443381412374e-01 -5.6317011750541886e-02 0.0000000000000000e+00  1.0845709812594306e+00 -1.0450120564948129e-01 0.0000000000000000e+00  1.5515907623135574e+00 -1.6774066624614434e-01 0.0000000000000000e+00  1.2561448196894198e+00 3.6909271809353495e-04 0.0000000000000000e+00  1.5337680303495600e+00 -2.6233082767104593e-02 0.0000000000000000e+00  1.4842764726355953e+00 3.2109401240711793e-02 0.0000000000000000e+00  1.2563475565754634e+00 9.8277718842369848e-03 0.0000000000000000e+00  1.4285697813492328e+00 -1.0736794325347844e-01 0.0000000000000000e+00  1.4819191233187499e+00 -1.0237192030899667e-01 0.0000000000000000e+00  1.0055774603189915e+00 6.5909427871200096e-03 0.0000000000000000e+00  8.0039150030556505e-02 -5.4797544810955799e-02 0.0000000000000000e+00  2.8529947677104567e-01 2.3862392039205305e-02 0.0000000000000000e+00  1.3619940578971408e+00 -8.5638986272750948e-04 0.0000000000000000e+00  9.5133504684347758e-01 8.3334010389018165e-03 0.0000000000000000e+00  1.2288354920268194e+00 1.8275499159090818e-03 0.0000000000000000e+00  1.3827675559054606e+00 -1.2125311100774774e-02 0.0000000000000000e+00  7.8913138138444339e-01 1.5496856410257118e-02 0.0000000000000000e+00  8.9236338418122152e-01 3.2140325404463187e-03 0.0000000000000000e+00  1.4150732227229104e+00 -1.3369494225787277e-02 0.0000000000000000e+00  1.0256107380291573e+00 6.8336302532702897e-02 0.0000000000000000e+00  8.7686382153376696e-01 4.1007404545146849e-03 0.0000000000000000e+00  6.5624905498425168e-01 8.5214267457435617e-08 0.0000000000000000e+00  1.0798344753236788e+00 5.2868561709636074e-02 0.0000000000000000e+00  1.5678742287545790e+00 3.7328531468868491e-02 0.0000000000000000e+00  1.5920481841986154e+00 -5.3796478163194959e-02 0.0000000000000000e+00  1.0470742830971400e+00 1.2355853989140350e-01 0.0000000000000000e+00  1.0725502507686753e+00 7.1270713522465778e-02 0.0000000000000000e+00  7.5115624689370730e-01 4.8746396111414526e-03 0.0000000000000000e+00  8.0360695974373697e-01 8.8056174336070520e-02 0.0000000000000000e+00  1.5022638075384362e+00 -7.6078269685098728e-03 0.0000000000000000e+00  1.6545377277165609e+00 1.6792651623550919e-01 0.0000000000000000e+00  1.3780524253372177e+00 -1.8171401485151308e-02 0.0000000000000000e+00  1.5102223020387189e+00 -1.1161098001092907e-02 0.0000000000000000e+00  1.6077558029732848e+00 -1.7204862444192063e-02 0.0000000000000000e+00  1.5003967911962146e+00 -1.3754498644149807e-01 0.0000000000000000e+00  1.1333623294138737e+00 -5.3945161792551578e-03 0.0000000000000000e+00  1.3680865885017506e+00 -3.4469648112827162e-03 0.0000000000000000e+00  1.2804890222012870e+00 1.3002004811227898e-02 0.0000000000000000e+00  7.9840586362003929e-01 4.5824592833855291e-03 0.0000000000000000e+00  1.5801585590797491e+00 5.6546668497881439e-02 0.0000000000000000e+00  9.4149972222154132e-01 9.3616179277849210e-02 0.0000000000000000e+00  1.3724250885142493e+00 4.8479900972255869e-03 0.0000000000000000e+00  1.2233634184715616e+00 1.6059409200833771e-01 0.0000000000000000e+00  8.7791070546541139e-01 -1.7351115187211684e-03 0.0000000000000000e+00  1.1875618758507116e+00 -2.6273232347692106e-03 0.0000000000000000e+00  1.3609839677076034e+00 9.6644241927086622e-02 0.0000000000000000e+00  1.5212075840814940e+00 2.1494499651667498e-02 0.0000000000000000e+00  1.3174195936619693e+00 6.9795372770343330e-03 0.0000000000000000e+00  1.4387401262487747e+00 2.1411928036140313e-03 0.0000000000000000e+00  1.3059842141561295e+00 -1.2929065086080927e-02 0.0000000000000000e+00  1.4517468239794751e+00 1.0461927972137302e-03 0.0000000000000000e+00  6.6530848528248077e-01 -1.6717753215446070e-03 0.0000000000000000e+00  6.3147137408044962e-01 -6.5436965234352343e-03 0.0000000000000000e+00  7.4263845623426028e-01 5.9942683444614616e-03 0.0000000000000000e+00  8.3607442218772909e-01 3.2232706324768958e-03 0.0000000000000000e+00  1.3413394557227138e+00 5.1054298739342599e-03 0.0000000000000000e+00  7.2255662249080521e-01 -7.1727832980331943e-04 0.0000000000000000e+00  1.2760846952794256e+00 1.5247397768266464e-02 0.0000000000000000e+00  1.4059151773299416e+00 -2.2518629973982286e-03 0.0000000000000000e+00  7.9304566991801040e-01 -2.0394277516276441e-02 0.0000000000000000e+00  8.2080093458389225e-01 4.2806179364592419e-02 0.0000000000000000e+00  1.3165833459481957e+00 -1.6810675242982444e-02 0.0000000000000000e+00  1.3767371495547096e+00 5.9706434907941591e-03 0.0000000000000000e+00  5.4575688235074327e-01 1.3119978919066894e-03 0.0000000000000000e+00  1.3542508125217507e+00 -1.1297735840679907e-02 0.0000000000000000e+00  7.5825607935699790e-01 -1.0807065691400539e-02 0.0000000000000000e+00  7.8140544397732015e-01 -3.2121786442850320e-03 0.0000000000000000e+00  7.3880943261945375e-01 -7.9175313340632075e-02 0.0000000000000000e+00  1.2000980548674243e+00 -5.3678498446279505e-02 0.0000000000000000e+00  6.4771921342558680e-01 1.4977621843938888e-03 0.0000000000000000e+00  1.5284799025326479e+00 2.2927666281789959e-02 0.0000000000000000e+00  1.5283963168423298e+00 4.7610015101011038e-01 0.0000000000000000e+00  1.0046222753195833e+00 1.8218584448666530e-01 0.0000000000000000e+00  7.5020414022215132e-01 1.0207695574936493e-03 0.0000000000000000e+00  1.3189377460785872e+00 -1.2562910926061807e-01 0.0000000000000000e+00  1.4488995977453587e+00 -5.4607923744453424e-01 0.0000000000000000e+00  6.8391748145149567e-01 6.3710931554768271e-03 0.0000000000000000e+00  7.7908142329964136e-01 1.7303445001346483e-03 0.0000000000000000e+00  1.4926671437906354e+00 -3.4288058961174702e-03 0.0000000000000000e+00  3.8430267154483611e-01 6.8810914285980990e-02 0.0000000000000000e+00  1.4062539941332466e+00 1.2047156910804545e-07 0.0000000000000000e+00  1.3735566192040143e+00 -3.1795260250874285e-03 0.0000000000000000e+00  7.4278590781868592e-01 -4.6298329794906948e-04 0.0000000000000000e+00  1.4062505937535672e+00 3.3963422072460909e-08 0.0000000000000000e+00  7.4024087626081025e-01 3.5006071612973021e-03 0.0000000000000000e+00  1.8372503645637017e+00 -3.2979577266606563e-01 0.0000000000000000e+00  1.4513584719547523e+00 3.9208479899993437e-03 0.0000000000000000e+00  7.1442582925771281e-01 9.8570240978570797e-02 0.0000000000000000e+00  1.2843717082537576e+00 1.3477853451327166e-02 0.0000000000000000e+00  6.9048562200059194e-01 -6.4852993075552165e-03 0.0000000000000000e+00  5.2364651225020142e-01 -2.8656429857673448e-03 0.0000000000000000e+00  1.3968455063014953e+00 -8.0234291526043368e-04 0.0000000000000000e+00  4.8787116011941556e-01 -2.3962256871815604e-03 0.0000000000000000e+00  6.5725819764488569e-01 -3.1836768111906978e-03 0.0000000000000000e+00  1.3074195967702467e+00 -4.417564