<?xml version="1.0"?>
<VTKFile type="UnstructuredGrid"  version="0.1"  >
<UnstructuredGrid>
<Piece  NumberOfPoints="2426" NumberOfCells="4534">
<Points>
<DataArray  type="Float64"  NumberOfComponents="3"  format="ascii">0 0.41 0  0 0 0  2.2 0 0  2.2 0.41 0  0.2404508497187474 0.2293892626146237 0  0.25 0.2 0  0.2404508497187474 0.1706107373853764 0  0.2154508497187474 0.1524471741852423 0  0.1845491502812526 0.1524471741852423 0  0.1595491502812526 0.1706107373853764 0  0.15 0.2 0  0.1595491502812526 0.2293892626146237 0  0.1845491502812527 0.2475528258147577 0  0.2154508497187474 0.2475528258147577 0  0.5404508497187474 0.2293892626146237 0  0.55 0.2 0  0.5404508497187474 0.1706107373853764 0  0.5154508497187473 0.1524471741852423 0  0.4845491502812526 0.1524471741852423 0  0.4595491502812526 0.1706107373853764 0  0.45 0.2 0  0.4595491502812526 0.2293892626146237 0  0.4845491502812526 0.2475528258147577 0  0.5154508497187473 0.2475528258147577 0  1.1 0 0  0 0.205 0  1.1 0.41 0  0.55 0 0  0.55 0.41 0  0.275 0 0  0.275 0.41 0  1.65 0.41 0  1.65 0 0  1.375 0 0  1.375 0.41 0  1.925 0 0  1.925 0.41 0  0.8250000000000001 0.41 0  0.8250000000000001 0 0  1.5125 0.205 0  1.7875 0.205 0  0.9625000000000001 0.205 0  1.2375 0.205 0  2.2 0.205 0  0.7560964076246335 0.2151713709677419 0  1.99375 0.2152743902439024 0  2.0625 0 0  0.6875 0 0  2.0625 0.41 0  2.2 0.3075 0  0.6875 0.41 0  1.7875 0.41 0  1.375 0.1486128048780488 0  1.5125 0 0  1.7875 0 0  1.5125 0.41 0  0.9625000000000001 0 0  0.9625000000000001 0.41 0  0.4125 0 0  0.1375 0 0  0.1375 0.41 0  0.4125 0.41 0  1.2375 0 0  1.1 0.1486128048780487 0  1.2375 0.41 0  1.65 0.1486128048780487 0  1.126715909090909 0.2793064024390244 0  1.676715909090909 0.2793064024390244 0  1.348284090909091 0.2793064024390244 0  0.34375 0.3032389320646208 0  1.894702181800738 0.1282910975492754 0  2.092797818199262 0.1282910975492754 0  1.85625 0.3075 0  0.8630851210521902 0.286932093388664 0  0.89375 0.1025 0  0.35 0.1090282786671641 0  0 0.3075 0  0 0.1025 0  0.6526217841291382 0.288229645480046 0  0.7562500000000001 0.09660248895515888 0  0.6568633732316684 0.1557582854763441 0  2.099172119769978 0.25625 0  1.002356446954348 0.1010393851523063 0  1.99375 0.08395950269330846 0  1.459960956013612 0.3075 0  1.569025960719943 0.2986889805672169 0  1.03125 0.3278689922742084 0  0.75625 0.3247156761655783 0  1.959375 0.3126371951219512 0  1.749222215368287 0.1025 0  1.275777784631713 0.1025 0  2.2 0.1025 0  1.225938124459196 0.3075 0  1.550777784631713 0.1025 0  1.44375 0.07430640243902442 0  1.16875 0.07430640243902437 0  0.3528655045338512 0.2063263890916129 0  0.5890337614812103 0.08775733857679162 0  0.8504912436891263 0.190072835691683 0  1.899250267340833 0.2229966846119207 0  0.1020898364287272 0.3140258291809757 0  1.766482954545455 0.2934032012195123 0  1.051658316544432 0.2265720188842194 0  0.2 0.3400647632937836 0  1.421109702350723 0.2261157654379721 0  0.4812500000000001 0.41 0  0.4324401666997539 0.3216425986889796 0  0.098916018031319 0.09171660955420841 0  0.9508742791313441 0.2921736960864468 0  2.13125 0 0  2.118919042110979 0.3422084711244843 0  1.30625 0.41 0  0.20625 0 0  1.597888256393107 0.2173787389261347 0  0.4812500000000001 0 0  0.4324082967851086 0.08384041677422771 0  1.829299675393195 0.07400700849299596 0  0.568219932524165 0.3212274660843853 0  1.71875 0.41 0  0.268005226542646 0.08512186835670006 0  1.16875 0.41 0  2.038220665644273 0.332420740103091 0  0.6678017527842831 0.07701763866051195 0  0.89375 0.41 0  0.5111435174287687 0.07335351331957608 0  0.176193934632343 0.0734896648625108 0  0.07390688010811153 0.1697064032433452 0  0.05452951551825875 0.25625 0  0.61875 0.41 0  1.452769549894695 0.1548122580621249 0  1.369219062229598 0.07430640243902442 0  1.30625 0 0  1.720943423819132 0.1714577452753128 0  1.157188124459196 0.205 0  1.094219062229598 0.07430640243902437 0  1.304056576180868 0.1714577452753128 0  1.67579304192913 0.07430640243902437 0  0.2672907219039591 0.3037570723459566 0  1.209670467133757 0.1362100266964769 0  1.58125 0 0  1.03125 0 0  0.06875000000000001 0.41 0  0 0.35875 0  1.58125 0.41 0  1.631724228912893 0.3381867502687533 0  0.8240147050827157 0.1225233169495944 0  1.825608881788174 0.14499488549201 0  1.85625 0 0  1.44375 0 0  1.44375 0.41 0  1.85625 0.41 0  2.13125 0.41 0  0.7562500000000001 0.41 0  0.7562500000000001 0 0  0.89375 0 0  0.34375 0 0  0.34375 0.41 0  0.20625 0.41 0  0.06875000000000001 0 0  1.16875 0 0  1.03125 0.41 0  0.61875 0 0  1.71875 0 0  1.99375 0 0  1.99375 0.41 0  0.3972301426712326 0.2593842555611471 0  1.340625 0.3489494290853124 0  1.134375 0.3489494290853123 0  1.700180620188976 0.3438659752031281 0  0.5003922072260507 0.341765274319271 0  0.6212513815748759 0.2209216137134851 0  0.6885607720119526 0.215393731583638 0  1.033412357328477 0.1612902025713047 0  2.135782184673599 0.07126652247502523 0  1.668441847249787 0.2129203728327609 0  1.295782514339747 0.2378437748815763 0  1.409375 0.3520314716057996 0  2.129248544730567 0.1906135162504124 0  2.060771381434487 0.1989445750470348 0  2.013252586573865 0.1496169464686054 0  1.942766402200229 0.1734448904596831 0  1.895522487186454 0.06076163953489683 0  2.069553871656643 0.06605731020975725 0  0.9281250000000001 0.3539050257418612 0  1.274680914880868 0.3520219391081363 0  0.3030138498135347 0.2488370856812789 0  0.8223773249563684 0.341761430177996 0  0.9018164060227267 0.2326477848736739 0  0.8143027982392851 0.2440265179987191 0  0.7225087161029304 0.2699907246386231 0  1.614713220494657 0.09473434380863296 0  0.378125 0.3566194660323104 0  0.309375 0.3566194660323104 0  1.72990325744076 0.2380068107952482 0  0.6915936999299305 0.3429472631234433 0  0.6268087624932918 0.3466455500035671 0  1.356580098625191 0.2120393231351682 0  0.3060160055995138 0.1590148921620778 0  0.3954648733249218 0.156380553890791 0  2.034370752044885 0.2668681600792073 0  1.51768709249349 0.3426260931494756 0  1.561883724969884 0.1650446847858835 0  1.197344062229598 0.2523725417393646 0  0.9281250000000001 0.05124999999999999 0  1.804085235518364 0.3468178408964637 0  1.817887819205233 0.2589243285818559 0  0.9107805776841645 0.1653834539923287 0  1.905897727272727 0.3485060975609756 0  0 0.05125 0  0.844212276491354 0.0614201194265309 0  0.378125 0.05244637078450034 0  1.008571329007178 0.2705955969954818 0  0.7724048032149464 0.1559079561351474 0  0.7203054377831548 0.04941826955193545 0  1.192836486056382 0.3562350748565544 0  0.5967108020713719 0.1479294686523888 0  1.28257088594801 0.2944411014911587 0  0.7041890234548132 0.1222025174424443 0  1.474860187679412 0.2504218616229368 0  1.406767003493824 0.2829282258560709 0  0.3201325899091991 0.05890121548989159 0  0.5979220912872258 0.2727591995766724 0  1.845656689180403 0.1998310418452388 0  2.144958525570388 0.2909790873294231 0  2.2 0.15375 0  1.57794966442982 0.3540357145964566 0  0.9483181579620558 0.1214693369582054 0  0.0496154796471391 0.333125 0  1.508991196088596 0.1421783375065625 0  0.09776612425612034 0.2204896805326566 0  1.50436820029908 0.06143401634903343 0  1.223857000523521 0.0823554862453532 0  0.2531953886959507 0.3582003209055908 0  1.153316824384777 0.1289850171317837 0  2.148922302309752 0.1258841779285271 0  1.621993280276081 0.2841214267927899 0  1.550118654119087 0.2461998729100966 0  1.327182649291491 0.1216967252533594 0  1.753125 0.04556020050186112 0  1.271875 0.04556020050186116 0  0.9824282234771738 0.05051969257615314 0  1.039510847866381 0.05683351822678641 0  1.94956388244759 0.1180512551534177 0  1.949997712993411 0.04965831614304109 0  1.771961817615021 0.1530278789497521 0  1.909246823951428 0.2812757146784527 0  1.101974016627944 0.2038045618205013 0  0.7906250000000001 0.0444674049654372 0  1.948575539857022 0.2445328248721197 0  1.697271520964565 0.1233917627620729 0  1.065625 0.3689344961371042 0  1.085849084308977 0.3170853572226867 0  0.9840604787624379 0.3582077516409966 0  1.577403511714593 0.05463601888079143 0  0.05622663515370135 0.05493816910862376 0  0.8762396958822678 0.3392249777398821 0  1.751571320346033 0.3651102912045228 0  1.055327852410105 0.111864799513911 0  0.1583785085108421 0.2994699345738728 0  0.1455283439499995 0.3542795598723423 0  2.2 0.35875 0  0.225705107073232 0.05084786997482401 0  0.1455852234589313 0.1166494778469164 0  1.466879772203159 0.3611261772912453 0  1.990280163552011 0.3564754268533217 0  1.17471064520912 0.2990917256188288 0  0.7221925551074015 0.1739659241003985 0  0 0.25625 0  2.2 0.25625 0  2.2 0.05125 0  0 0.15375 0  1.853978576207987 0.35875 0  0.21965520498276 0.1015543880164422 0  1.515638456102889 0.2882700110184686 0  0.09048297387599738 0.3637717362208066 0  2.150453692751374 0.2387066338105111 0  1.323782677156475 0.04897634338873398 0  1.409375 0.03715320121951221 0  1.406484531114799 0.1087852750766809 0  1.134375 0.03715320121951218 0  1.627401732573545 0.04552157221025036 0  0.446875 0.3713289093361426 0  2.045405893604797 0.1105340662939892 0  1.255408269734577 0.1577307500159216 0  2.028125 0.03707597992059326 0  0.04420832937638274 0.128125 0  0.5817551710628505 0.3702615006034757 0  0.1197849154434487 0.2663398672460083 0  1.248258025468107 0.2565907092181813 0  0.1300647302703173 0.0508462728378621 0  0.7738123537510222 0.2761231499240648 0  1.203125 0.0366132337404304 0  0.5444207041612499 0.111205399508622 0  0.8016457771828226 0.1964238426015905 0  2.072662025974815 0.2975086504196739 0  0.4019040438866802 0.2103993403217561 0  0.4677372330974851 0.04827477407630658 0  0.8677218578847617 0.1432970430140788 0  1.058011122005847 0.2758866204059919 0  0.4429405887974043 0.2746184809910084 0  0.5843750000000001 0.03726989681835222 0  0.6318596133730142 0.1128692182767254 0  0.4862628454464408 0.2957029785303028 0  0.7805186758662764 0.3673578380827891 0  1.887722846421017 0.1760882698830035 0  0.3498893058880703 0.256189258793856 0  1.472640588990488 0.1118278026240017 0  1.865937103925594 0.2604137786483804 0
[...]
<PointData  Vectors="f_37"> 
<DataArray  type="Float64"  Name="f_37"  NumberOfComponents="3" format="ascii">-6.1076367443518677e-07 2.0681650829937414e-08 0.0000000000000000e+00  3.7212607048543132e-07 -2.9247891232366019e-08 0.0000000000000000e+00  1.1304214690387611e-06 -8.2307762603968619e-08 0.0000000000000000e+00  1.4134414548060413e-06 2.6004138280464262e-08 0.0000000000000000e+00  -9.8306065393866947e-07 1.9010596534263608e-07 0.0000000000000000e+00  -7.8688037192440611e-07 3.5544449500722706e-07 0.0000000000000000e+00  -1.6766234276152607e-06 3.9739656082889544e-07 0.0000000000000000e+00  1.2184382122957731e-06 2.5396800352902936e-07 0.0000000000000000e+00  2.8020494637519128e-06 -5.8324812607453473e-07 0.0000000000000000e+00  -1.0537025562555305e-06 1.2726902208255533e-07 0.0000000000000000e+00  -1.7493021045423606e-06 1.2007205134355566e-06 0.0000000000000000e+00  8.2422150646963780e-07 2.2280300943862180e-06 0.0000000000000000e+00  -3.6395812292773883e-06 -1.3531590544439206e-06 0.0000000000000000e+00  -3.5894495308392032e-06 -8.8478006209647734e-07 0.0000000000000000e+00  -1.5099639014683628e-06 -9.4399362102423237e-08 0.0000000000000000e+00  -1.4178855216668207e-06 1.2487695700977944e-07 0.0000000000000000e+00  -4.3189412514119342e-06 -2.6270510961698626e-07 0.0000000000000000e+00  -3.5329313545298620e-06 -2.0457150330871914e-07 0.0000000000000000e+00  -2.0380112039978902e-06 8.8451314085334629e-09 0.0000000000000000e+00  -1.2259765670162851e-06 -8.6606915357656302e-07 0.0000000000000000e+00  -1.1453383214736179e-06 -8.5981256780769395e-07 0.0000000000000000e+00  -1.1747948544101659e-06 -5.1735771445988409e-07 0.0000000000000000e+00  -3.6592929373204105e-07 1.3814749871844181e-07 0.0000000000000000e+00  2.0885586719909162e-07 3.6797804430864577e-08 0.0000000000000000e+00  -1.6539312609607658e-06 5.2402853067397165e-07 0.0000000000000000e+00  1.5000025293079846e+00 4.4978827528000055e-08 0.0000000000000000e+00  -8.4333539489784508e-07 4.4518004998365411e-07 0.0000000000000000e+00  -1.9863881444112052e-06 -8.3119751904539724e-08 0.0000000000000000e+00  -1.1705703041676847e-06 4.7412246592159060e-08 0.0000000000000000e+00  -2.6309158391983828e-06 9.3971801876534002e-08 0.0000000000000000e+00  -1.0691478173669836e-06 -2.6165925097966789e-08 0.0000000000000000e+00  -2.6159909474384618e-08 -2.1536641093077280e-07 0.0000000000000000e+00  5.7730819708872537e-08 -1.7182139417175744e-07 0.0000000000000000e+00  4.0038477591630122e-06 -8.0524687448536018e-08 0.0000000000000000e+00  -1.4097728125038420e-06 -1.0923699613164792e-07 0.0000000000000000e+00  3.1847231445360620e-07 -2.6426307589272970e-08 0.0000000000000000e+00  1.1797873497954926e-06 1.9983672464433862e-07 0.0000000000000000e+00  1.0752635442617772e-06 1.0029118798828445e-07 0.0000000000000000e+00  -4.2003755815226582e-06 -1.2345326345612802e-08 0.0000000000000000e+00  1.0493327935631853e+00 2.7142003395936126e-02 0.0000000000000000e+00  1.1433636667128120e+00 3.8845809099356650e-02 0.0000000000000000e+00  6.0505577365095531e-01 4.2347354366145994e-03 0.0000000000000000e+00  9.3311247041955669e-01 -5.0905575101648358e-02 0.0000000000000000e+00  1.2687885869679176e+00 3.0620756681469335e-02 0.0000000000000000e+00  2.4763403069571077e-01 -5.0601298952059746e-02 0.0000000000000000e+00  1.3027571048662376e+00 -5.0188495876703300e-02 0.0000000000000000e+00  -2.4931391789146003e-06 1.9320757389897025e-08 0.0000000000000000e+00  -1.5667005601817666e-06 -9.9424466272115132e-09 0.0000000000000000e+00  -1.2494823707622355e-06 -1.7469138214713306e-07 0.0000000000000000e+00  1.2389073717002854e+00 1.1083223156894450e-02 0.0000000000000000e+00  -2.5253763532640579e-07 1.1297814375382643e-07 0.0000000000000000e+00  -2.2751372807399622e-06 -1.5473324347104844e-08 0.0000000000000000e+00  1.4054491670578526e+00 2.8784000020542249e-02 0.0000000000000000e+00  1.7449893854647595e-07 1.9552205851403168e-07 0.0000000000000000e+00  3.7076988484696554e-07 1.5053307122582818e-07 0.0000000000000000e+00  2.5783281109697037e-06 3.5864204671538888e-07 0.0000000000000000e+00  1.3992430676704797e-06 -3.1782688662035165e-07 0.0000000000000000e+00  -2.4737392945956422e-06 -2.0608377075405416e-07 0.0000000000000000e+00  -5.6614516893856748e-07 -1.6872583544463849e-08 0.0000000000000000e+00  2.8968192310998355e-07 6.5417940915149753e-08 0.0000000000000000e+00  6.2017547310162942e-07 1.3470646806186063e-07 0.0000000000000000e+00  -2.8773373115926604e-06 1.0650471865739182e-07 0.0000000000000000e+00  -3.2101734018069731e-07 -1.8676182091006127e-07 0.0000000000000000e+00  1.3599296116719128e+00 2.1305744769004237e-02 0.0000000000000000e+00  9.9244998153370779e-07 -2.5892654007869968e-07 0.0000000000000000e+00  1.3243538857116770e+00 -8.8104570021306054e-03 0.0000000000000000e+00  1.6093223783071884e+00 -4.5490571923451462e-02 0.0000000000000000e+00  1.4079337173487858e+00 1.0581066106261769e-02 0.0000000000000000e+00  1.4861589510871982e+00 1.3411819883288005e-02 0.0000000000000000e+00  1.9599688900447090e+00 2.9796876065881338e-02 0.0000000000000000e+00  1.2956852255699915e+00 1.1456053332572148e-02 0.0000000000000000e+00  1.3598810269635326e+00 -3.7090589548653390e-03 0.0000000000000000e+00  1.3305203116936868e+00 -1.3515259768698334e-02 0.0000000000000000e+00  1.6474220951481131e+00 -1.0179030746611756e-01 0.0000000000000000e+00  1.5715381977077794e+00 8.9300118640016302e-02 0.0000000000000000e+00  1.8656246091937023e+00 9.6766038753952621e-03 0.0000000000000000e+00  1.1249986021911189e+00 -1.6120472834410929e-07 0.0000000000000000e+00  1.1250027197737469e+00 2.9730688263241584e-08 0.0000000000000000e+00  1.7760591602544893e+00 -1.6483943950618038e-01 0.0000000000000000e+00  1.6438986907862165e+00 1.3118034826488967e-01 0.0000000000000000e+00  7.3568065818141171e-01 1.1389597270515230e-01 0.0000000000000000e+00  1.3240094639786346e+00 -2.5021186526337433e-02 0.0000000000000000e+00  1.4693149910406109e+00 3.7405231093596329e-02 0.0000000000000000e+00  1.1129396386753021e+00 -1.7400344640362440e-03 0.0000000000000000e+00  1.3813714946696969e+00 -1.4951878567505877e-02 0.0000000000000000e+00  1.4013035077272242e+00 -6.2142912162803446e-03 0.0000000000000000e+00  1.2587526199047518e+00 -2.3495401004610953e-02 0.0000000000000000e+00  1.5471013279075598e+00 -1.2658126207615106e-01 0.0000000000000000e+00  1.2310729623491206e+00 -4.4179283450853724e-03 0.0000000000000000e+00  1.2852713159024649e+00 6.3748323868977868e-03 0.0000000000000000e+00  1.4112930191208186e+00 1.8725146625218958e-02 0.0000000000000000e+00  1.2154531557856012e+00 -2.5486659571110655e-04 0.0000000000000000e+00  1.3960449315368062e+00 1.8369052832014467e-03 0.0000000000000000e+00  1.3232639406634628e+00 -2.5029256041207535e-03 0.0000000000000000e+00  1.0418308600903161e+00 -1.3938281643365575e-02 0.0000000000000000e+00  1.0981797741628718e+00 -4.5212497761919056e-03 0.0000000000000000e+00  -3.3026645610595939e-01 -1.6780035262953876e-02 0.0000000000000000e+00  1.7770633823477140e+00 1.2382312166818110e-01 0.0000000000000000e+00  4.1048943195612181e-01 -1.3042823929088820e-02 0.0000000000000000e+00  1.2389708297907018e+00 4.5244593501748996e-02 0.0000000000000000e+00  1.1818515498392315e+00 2.5543987856107919e-01 0.0000000000000000e+00  1.3800281344691747e+00 6.6399934017513781e-03 0.0000000000000000e+00  9.5581373059616592e-01 1.1866491583981474e-02 0.0000000000000000e+00  1.3809908686663286e+00 2.1755476122845371e-01 0.0000000000000000e+00  1.0822274854294949e+00 2.7160165334800281e-02 0.0000000000000000e+00  6.5809143828761106e-07 -1.4991403488580884e-08 0.0000000000000000e+00  1.8393718589023358e+00 -5.9890574002159754e-02 0.0000000000000000e+00  1.1435719672341804e+00 -2.5639333563076205e-01 0.0000000000000000e+00  1.6023577872243695e+00 -4.1943931587781647e-02 0.0000000000000000e+00  -2.9605363117863464e-07 -3.2677470147068510e-07 0.0000000000000000e+00  9.5521540857966347e-01 3.2114400169072589e-03 0.0000000000000000e+00  -3.4913970376468108e-06 -4.9309802961074287e-07 0.0000000000000000e+00  -6.9069932547785465e-06 2.7174139062439572e-07 0.0000000000000000e+00  1.1691229944654982e+00 -3.9852928927133664e-02 0.0000000000000000e+00  1.2008334941295386e-06 -2.8039041898856905e-08 0.0000000000000000e+00  1.8256106716062381e+00 7.9544970829062395e-02 0.0000000000000000e+00  1.0111077786173068e+00 -6.4590542167951310e-03 0.0000000000000000e+00  1.7942462928302954e+00 -1.1378037465205292e-01 0.0000000000000000e+00  -3.9032316583146037e-06 -1.6503447867097644e-07 0.0000000000000000e+00  1.7980317617776143e+00 -1.4145206858740805e-01 0.0000000000000000e+00  2.2494448624075401e-06 3.3612457712039912e-07 0.0000000000000000e+00  1.0458678839818880e+00 9.5747147445267942e-03 0.0000000000000000e+00  1.5980150612082999e+00 1.2743382225180289e-01 0.0000000000000000e+00  -2.2757642325402030e-06 -2.1609194789089644e-07 0.0000000000000000e+00  1.7205934256500688e+00 7.5193521844538327e-02 0.0000000000000000e+00  1.3596728767730031e+00 -3.0234534023984883e-01 0.0000000000000000e+00  1.3399829656509534e+00 -1.2284053098618730e-01 0.0000000000000000e+00  1.3729748124757055e+00 1.2466588850386885e-01 0.0000000000000000e+00  -2.9355630022886101e-07 2.6703116862739024e-08 0.0000000000000000e+00  1.3132627886781403e+00 2.3929508966414659e-02 0.0000000000000000e+00  1.0441115121242825e+00 -5.1084477775251748e-03 0.0000000000000000e+00  2.2237780521871255e-06 -4.5972848533476421e-07 0.0000000000000000e+00  1.2585840718935755e+00 2.3379707407397234e-03 0.0000000000000000e+00  8.7404562031991662e-01 -6.9225389190794009e-03 0.0000000000000000e+00  1.1010506761845731e+00 -9.8827991660768808e-03 0.0000000000000000e+00  1.1377932872077705e+00 -7.7992347228272212e-03 0.0000000000000000e+00  1.0296212773656079e+00 3.5546860816201768e-03 0.0000000000000000e+00  1.9201562526097209e+00 1.8433179269639322e-01 0.0000000000000000e+00  1.4305110395333107e+00 1.5460823846014751e-03 0.0000000000000000e+00  1.4422137223402107e-06 4.3278041042443625e-08 0.0000000000000000e+00  2.2834985417130259e-06 -1.1915515631388323e-08 0.0000000000000000e+00  -7.9462021504751700e-07 -5.5852405545665801e-08 0.0000000000000000e+00  6.5625204042269702e-01 2.0173409382100724e-08 0.0000000000000000e+00  1.3251649336081783e-06 7.2280326670198700e-08 0.0000000000000000e+00  9.9745771215240886e-01 1.4192581350356802e-02 0.0000000000000000e+00  1.6300946509781085e+00 1.1766847314098849e-01 0.0000000000000000e+00  1.3512340786184616e+00 2.4766052417042921e-02 0.0000000000000000e+00  -7.8015840266778536e-07 8.0920757294341056e-08 0.0000000000000000e+00  -2.9585431458455496e-06 3.3965045726235460e-07 0.0000000000000000e+00  -9.6955048912495205e-07 1.1826447958932220e-07 0.0000000000000000e+00  -1.3903083314136747e-06 5.8370006544892908e-08 0.0000000000000000e+00  -1.0652907723041219e-06 1.3240012598927564e-07 0.0000000000000000e+00  5.4212769659926348e-07 1.1152951879506964e-07 0.0000000000000000e+00  -3.6016385086800886e-06 -2.8167254270691519e-08 0.0000000000000000e+00  -1.0750189112120661e-06 -2.3415665271428658e-07 0.0000000000000000e+00  2.6861661509695910e-07 -6.7463218516368090e-09 0.0000000000000000e+00  3.0827164438311398e-07 1.3617437051312928e-08 0.0000000000000000e+00  1.1798489115887499e-06 -8.5574093607084199e-08 0.0000000000000000e+00  -8.2787982466908130e-07 1.4495785611178447e-07 0.0000000000000000e+00  -2.3790147659986414e-06 2.6140099971764906e-07 0.0000000000000000e+00  -3.5485281390894133e-06 9.4779105733437506e-08 0.0000000000000000e+00  -2.4650359420896307e-06 -1.3933983579714441e-07 0.0000000000000000e+00  -1.3557290647681343e-06 -1.5032055906077369e-07 0.0000000000000000e+00  -1.4573956613717111e-06 1.8312988687738636e-07 0.0000000000000000e+00  -1.2304079356733139e-06 -7.9841169682670225e-08 0.0000000000000000e+00  7.2109754281627003e-01 -4.3209680201839913e-02 0.0000000000000000e+00  8.6739642842324960e-01 9.4453106090770945e-03 0.0000000000000000e+00  8.6346283878189922e-01 -6.8134403924260340e-03 0.0000000000000000e+00  9.4135044446934546e-01 8.5077697140974184e-03 0.0000000000000000e+00  1.6572409099913381e+00 -6.9436422042500764e-02 0.0000000000000000e+00  6.7182301744537591e-03 -1.9685483596053638e-03 0.0000000000000000e+00  4.9444657792341078e-02 -1.9699965388540113e-02 0.0000000000000000e+00  1.2426712447712334e+00 5.9920523063461899e-02 0.0000000000000000e+00  9.6863626388656865e-01 7.5868494370431286e-04 0.0000000000000000e+00  1.1210805367943117e+00 -5.5691250315200370e-02 0.0000000000000000e+00  1.2330374275416793e+00 -2.6881120250996936e-02 0.0000000000000000e+00  8.2162478128870498e-01 1.2075127799149512e-05 0.0000000000000000e+00  1.2374264631118572e+00 -5.9945249932520782e-02 0.0000000000000000e+00  1.2238770101383620e+00 -8.4995377756999169e-02 0.0000000000000000e+00  1.2097945398126904e+00 -3.6648743843887242e-02 0.0000000000000000e+00  1.1551348203234306e+00 3.0101602678285509e-02 0.0000000000000000e+00  8.6355878600397495e-01 -2.0253101462756546e-03 0.0000000000000000e+00  9.2202556497442145e-01 1.3084962316918601e-03 0.0000000000000000e+00  8.8369022894839555e-01 -1.5837397852380489e-02 0.0000000000000000e+00  8.0836851974766255e-01 1.3540462753815811e-02 0.0000000000000000e+00  2.3133275059406400e-01 5.0401337292066896e-02 0.0000000000000000e+00  1.2196629118379974e+00 -6.9836826343205663e-02 0.0000000000000000e+00  9.2661169860308512e-01 -7.3682350629658860e-02 0.0000000000000000e+00  1.1213378810338768e+00 -1.3115071623962604e-01 0.0000000000000000e+00  1.5707932578259036e+00 -1.7379540733140689e-01 0.0000000000000000e+00  1.2689001033645624e+00 7.6454208053534966e-03 0.0000000000000000e+00  1.5336080897839031e+00 -2.5865972458000000e-02 0.0000000000000000e+00  1.4839991776167756e+00 3.2129012037833166e-02 0.0000000000000000e+00  1.1969871961500980e+00 -1.4822240228576297e-02 0.0000000000000000e+00  1.4296919193329363e+00 -1.1014867581515550e-01 0.0000000000000000e+00  1.4836978382838601e+00 -1.0298530775734277e-01 0.0000000000000000e+00  9.8079427029364519e-01 -6.5469064174268725e-03 0.0000000000000000e+00  8.0729511355308481e-02 -5.5950582535942088e-02 0.0000000000000000e+00  2.8723754826244796e-01 2.3966839664604708e-02 0.0000000000000000e+00  1.3993015864970049e+00 -1.3888934089788498e-02 0.0000000000000000e+00  9.3784541534088361e-01 -7.1251749167217549e-04 0.0000000000000000e+00  1.1535889371705137e+00 -2.4053494668963715e-04 0.0000000000000000e+00  1.4639493445357772e+00 -4.4623727992948246e-02 0.0000000000000000e+00  7.8064186392451629e-01 2.3146124457508507e-02 0.0000000000000000e+00  9.0253788123390033e-01 -1.4663805920719964e-03 0.0000000000000000e+00  1.3277836619949099e+00 2.5038016358245152e-02 0.0000000000000000e+00  1.0684417419458898e+00 6.2584433166763889e-02 0.0000000000000000e+00  8.6536188496491540e-01 -1.0373063885846469e-03 0.0000000000000000e+00  6.5624905868697203e-01 8.9416514512675688e-08 0.0000000000000000e+00  1.0873397288285807e+00 5.6067406534809017e-02 0.0000000000000000e+00  1.5679822017812335e+00 3.7748654927046696e-02 0.0000000000000000e+00  1.5693738532454944e+00 -2.9477371529457754e-02 0.0000000000000000e+00  1.0079661503127997e+00 1.0707619444763099e-01 0.0000000000000000e+00  1.0731369744191577e+00 6.8647828549138160e-02 0.0000000000000000e+00  7.3285561096973284e-01 4.4974947637779119e-03 0.0000000000000000e+00  8.0961742338299914e-01 9.1876480618378734e-02 0.0000000000000000e+00  1.4691809194303793e+00 1.4170226631170395e-02 0.0000000000000000e+00  1.6409207408779769e+00 1.6504903338639831e-01 0.0000000000000000e+00  1.3634675500477538e+00 -2.2057133429800911e-03 0.0000000000000000e+00  1.4910050318210655e+00 5.9409829401724495e-04 0.0000000000000000e+00  1.6080445393911842e+00 -1.7144212114623861e-02 0.0000000000000000e+00  1.4992574795059577e+00 -1.3548969535797417e-01 0.0000000000000000e+00  1.1556083718129588e+00 7.7188056860624465e-02 0.0000000000000000e+00  1.2895008980878935e+00 -1.2136566452297130e-03 0.0000000000000000e+00  1.3957428047621101e+00 4.0955535172654434e-02 0.0000000000000000e+00  7.8114174241905743e-01 7.2943765885093437e-03 0.0000000000000000e+00  1.6066272494664742e+00 8.1861568164687926e-02 0.0000000000000000e+00  9.4149767024579378e-01 9.3606760891295826e-02 0.0000000000000000e+00  1.3381004224830915e+00 4.3802236863238180e-03 0.0000000000000000e+00  1.2233591379554400e+00 1.6053317940615389e-01 0.0000000000000000e+00  8.7906618180185181e-01 -7.1516445785388041e-03 0.0000000000000000e+00  1.2046757746284811e+00 7.1277460320910754e-03 0.0000000000000000e+00  1.3608152153099966e+00 9.6585428072777715e-02 0.0000000000000000e+00  1.4711183529200189e+00 -2.9806015561808031e-03 0.0000000000000000e+00  1.3798619131189878e+00 2.7176159368898570e-02 0.0000000000000000e+00  1.4367253462418619e+00 2.3699197347370874e-03 0.0000000000000000e+00  1.3845695143643681e+00 -2.8164469053043598e-02 0.0000000000000000e+00  1.4922795291777713e+00 2.4618466167458549e-02 0.0000000000000000e+00  6.5505567315592750e-01 -2.9973684098391238e-03 0.0000000000000000e+00  6.2696867368373654e-01 1.6807877991837144e-03 0.0000000000000000e+00  7.2709253201616908e-01 9.0850318640616230e-03 0.0000000000000000e+00  8.2143882293715687e-01 -3.0819505782083067e-03 0.0000000000000000e+00  1.2659132259884682e+00 5.6786825405469378e-05 0.0000000000000000e+00  7.2242973507413921e-01 -1.1455563885743607e-03 0.0000000000000000e+00  1.3740785435631795e+00 3.3284166179749532e-02 0.0000000000000000e+00  1.4625865352927994e+00 -2.8191268792849472e-02 0.0000000000000000e+00  7.9896299916817026e-01 3.4061397301336720e-02 0.0000000000000000e+00  8.2679693932413623e-01 4.0987855227663531e-02 0.0000000000000000e+00  1.4214131531073486e+00 -3.5389023297820281e-02 0.0000000000000000e+00  1.4165322373093590e+00 1.9406941063588357e-02 0.0000000000000000e+00  5.4936397746197918e-01 -4.1508515358381071e-03 0.0000000000000000e+00  1.3743643282742175e+00 -3.0067377777526012e-02 0.0000000000000000e+00  7.6915362977841761e-01 -7.3795085524071156e-03 0.0000000000000000e+00  7.8468094417861223e-01 -2.6048884495892235e-04 0.0000000000000000e+00  7.3881204853268956e-01 -7.9182979997894587e-02 0.0000000000000000e+00  1.1901318960644767e+00 -4.6596608320178499e-02 0.0000000000000000e+00  6.5686941584314840e-01 2.2288156223375737e-03 0.0000000000000000e+00  1.5044444412271205e+00 1.4762659441955438e-02 0.0000000000000000e+00  1.5283665911817712e+00 4.7602631677004315e-01 0.0000000000000000e+00  1.0045831165509538e+00 1.8214733529969415e-01 0.0000000000000000e+00  7.6051473233674161e-01 3.0674320714345503e-03 0.0000000000000000e+00  1.3190463036542444e+00 -1.2567524837468674e-01 0.0000000000000000e+00  1.4489362795275389e+00 -5.4614601957537678e-01 0.0000000000000000e+00  6.8098546093110623e-01 -1.6323532084261488e-03 0.0000000000000000e+00  7.7000631890966842e-01 4.4029792046687832e-03 0.0000000000000000e+00  1.4992615014466995e+00 -2.4174705244904365e-02 0.0000000000000000e+00  3.5974214126330206e-01 7.6964997729280296e-02 0.0000000000000000e+00  1.4062540059528521e+00 1.4738294690114441e-07 0.0000000000000000e+00  1.2346447156454068e+00 1.2255845503190562e-02 0.0000000000000000e+00  7.4411367243999182e-01 -5.6207469842244851e-03 0.0000000000000000e+00  1.4062506006872606e+00 6.1047929934110938e-08 0.0000000000000000e+00  7.3965629675127909e-01 -1.3288599566610825e-03 0.0000000000000000e+00  1.8373133773180814e+00 -3.2989819834831552e-01 0.0000000000000000e+00  1.4876562942733886e+00 -2.3047253370201675e-02 0.0000000000000000e+00  7.1441332484617703e-01 9.8552792261300814e-02 0.0000000000000000e+00  1.2250999842642016e+00 -4.2786160713385653e-02 0.0000000000000000e+00  6.7509253655860113e-01 -8.4797388170580832e-04 0.0000000000000000e+00  5.1185085387905072e-01 -6.1044111271203842e-03 0.0000000000000000e+00  1.3912416591091530e+00 -1.2935892373686316e-03 0.0000000000000000e+00  4.9515068511607141e-01 -7.3455825881309092e-03 0.0000000000000000e+00  6.5319458055161606e-01 5.1214441651998080e-04 0.0000000000000000e+00  1.3081820452106365e+00 -4.