<?xml version="1.0"?>
<VTKFile type="UnstructuredGrid"  version="0.1"  >
<UnstructuredGrid>
<Piece  NumberOfPoints="2426" NumberOfCells="4534">
<Points>
<DataArray  type="Float64"  NumberOfComponents="3"  format="ascii">0 0.41 0  0 0 0  2.2 0 0  2.2 0.41 0  0.2404508497187474 0.2293892626146237 0  0.25 0.2 0  0.2404508497187474 0.1706107373853764 0  0.2154508497187474 0.1524471741852423 0  0.1845491502812526 0.1524471741852423 0  0.1595491502812526 0.1706107373853764 0  0.15 0.2 0  0.1595491502812526 0.2293892626146237 0  0.1845491502812527 0.2475528258147577 0  0.2154508497187474 0.2475528258147577 0  0.5404508497187474 0.2293892626146237 0  0.55 0.2 0  0.5404508497187474 0.1706107373853764 0  0.5154508497187473 0.1524471741852423 0  0.4845491502812526 0.1524471741852423 0  0.4595491502812526 0.1706107373853764 0  0.45 0.2 0  0.4595491502812526 0.2293892626146237 0  0.4845491502812526 0.2475528258147577 0  0.5154508497187473 0.2475528258147577 0  1.1 0 0  0 0.205 0  1.1 0.41 0  0.55 0 0  0.55 0.41 0  0.275 0 0  0.275 0.41 0  1.65 0.41 0  1.65 0 0  1.375 0 0  1.375 0.41 0  1.925 0 0  1.925 0.41 0  0.8250000000000001 0.41 0  0.8250000000000001 0 0  1.5125 0.205 0  1.7875 0.205 0  0.9625000000000001 0.205 0  1.2375 0.205 0  2.2 0.205 0  0.7560964076246335 0.2151713709677419 0  1.99375 0.2152743902439024 0  2.0625 0 0  0.6875 0 0  2.0625 0.41 0  2.2 0.3075 0  0.6875 0.41 0  1.7875 0.41 0  1.375 0.1486128048780488 0  1.5125 0 0  1.7875 0 0  1.5125 0.41 0  0.9625000000000001 0 0  0.9625000000000001 0.41 0  0.4125 0 0  0.1375 0 0  0.1375 0.41 0  0.4125 0.41 0  1.2375 0 0  1.1 0.1486128048780487 0  1.2375 0.41 0  1.65 0.1486128048780487 0  1.126715909090909 0.2793064024390244 0  1.676715909090909 0.2793064024390244 0  1.348284090909091 0.2793064024390244 0  0.34375 0.3032389320646208 0  1.894702181800738 0.1282910975492754 0  2.092797818199262 0.1282910975492754 0  1.85625 0.3075 0  0.8630851210521902 0.286932093388664 0  0.89375 0.1025 0  0.35 0.1090282786671641 0  0 0.3075 0  0 0.1025 0  0.6526217841291382 0.288229645480046 0  0.7562500000000001 0.09660248895515888 0  0.6568633732316684 0.1557582854763441 0  2.099172119769978 0.25625 0  1.002356446954348 0.1010393851523063 0  1.99375 0.08395950269330846 0  1.459960956013612 0.3075 0  1.569025960719943 0.2986889805672169 0  1.03125 0.3278689922742084 0  0.75625 0.3247156761655783 0  1.959375 0.3126371951219512 0  1.749222215368287 0.1025 0  1.275777784631713 0.1025 0  2.2 0.1025 0  1.225938124459196 0.3075 0  1.550777784631713 0.1025 0  1.44375 0.07430640243902442 0  1.16875 0.07430640243902437 0  0.3528655045338512 0.2063263890916129 0  0.5890337614812103 0.08775733857679162 0  0.8504912436891263 0.190072835691683 0  1.899250267340833 0.2229966846119207 0  0.1020898364287272 0.3140258291809757 0  1.766482954545455 0.2934032012195123 0  1.051658316544432 0.2265720188842194 0  0.2 0.3400647632937836 0  1.421109702350723 0.2261157654379721 0  0.4812500000000001 0.41 0  0.4324401666997539 0.3216425986889796 0  0.098916018031319 0.09171660955420841 0  0.9508742791313441 0.2921736960864468 0  2.13125 0 0  2.118919042110979 0.3422084711244843 0  1.30625 0.41 0  0.20625 0 0  1.597888256393107 0.2173787389261347 0  0.4812500000000001 0 0  0.4324082967851086 0.08384041677422771 0  1.829299675393195 0.07400700849299596 0  0.568219932524165 0.3212274660843853 0  1.71875 0.41 0  0.268005226542646 0.08512186835670006 0  1.16875 0.41 0  2.038220665644273 0.332420740103091 0  0.6678017527842831 0.07701763866051195 0  0.89375 0.41 0  0.5111435174287687 0.07335351331957608 0  0.176193934632343 0.0734896648625108 0  0.07390688010811153 0.1697064032433452 0  0.05452951551825875 0.25625 0  0.61875 0.41 0  1.452769549894695 0.1548122580621249 0  1.369219062229598 0.07430640243902442 0  1.30625 0 0  1.720943423819132 0.1714577452753128 0  1.157188124459196 0.205 0  1.094219062229598 0.07430640243902437 0  1.304056576180868 0.1714577452753128 0  1.67579304192913 0.07430640243902437 0  0.2672907219039591 0.3037570723459566 0  1.209670467133757 0.1362100266964769 0  1.58125 0 0  1.03125 0 0  0.06875000000000001 0.41 0  0 0.35875 0  1.58125 0.41 0  1.631724228912893 0.3381867502687533 0  0.8240147050827157 0.1225233169495944 0  1.825608881788174 0.14499488549201 0  1.85625 0 0  1.44375 0 0  1.44375 0.41 0  1.85625 0.41 0  2.13125 0.41 0  0.7562500000000001 0.41 0  0.7562500000000001 0 0  0.89375 0 0  0.34375 0 0  0.34375 0.41 0  0.20625 0.41 0  0.06875000000000001 0 0  1.16875 0 0  1.03125 0.41 0  0.61875 0 0  1.71875 0 0  1.99375 0 0  1.99375 0.41 0  0.3972301426712326 0.2593842555611471 0  1.340625 0.3489494290853124 0  1.134375 0.3489494290853123 0  1.700180620188976 0.3438659752031281 0  0.5003922072260507 0.341765274319271 0  0.6212513815748759 0.2209216137134851 0  0.6885607720119526 0.215393731583638 0  1.033412357328477 0.1612902025713047 0  2.135782184673599 0.07126652247502523 0  1.668441847249787 0.2129203728327609 0  1.295782514339747 0.2378437748815763 0  1.409375 0.3520314716057996 0  2.129248544730567 0.1906135162504124 0  2.060771381434487 0.1989445750470348 0  2.013252586573865 0.1496169464686054 0  1.942766402200229 0.1734448904596831 0  1.895522487186454 0.06076163953489683 0  2.069553871656643 0.06605731020975725 0  0.9281250000000001 0.3539050257418612 0  1.274680914880868 0.3520219391081363 0  0.3030138498135347 0.2488370856812789 0  0.8223773249563684 0.341761430177996 0  0.9018164060227267 0.2326477848736739 0  0.8143027982392851 0.2440265179987191 0  0.7225087161029304 0.2699907246386231 0  1.614713220494657 0.09473434380863296 0  0.378125 0.3566194660323104 0  0.309375 0.3566194660323104 0  1.72990325744076 0.2380068107952482 0  0.6915936999299305 0.3429472631234433 0  0.6268087624932918 0.3466455500035671 0  1.356580098625191 0.2120393231351682 0  0.3060160055995138 0.1590148921620778 0  0.3954648733249218 0.156380553890791 0  2.034370752044885 0.2668681600792073 0  1.51768709249349 0.3426260931494756 0  1.561883724969884 0.1650446847858835 0  1.197344062229598 0.2523725417393646 0  0.9281250000000001 0.05124999999999999 0  1.804085235518364 0.3468178408964637 0  1.817887819205233 0.2589243285818559 0  0.9107805776841645 0.1653834539923287 0  1.905897727272727 0.3485060975609756 0  0 0.05125 0  0.844212276491354 0.0614201194265309 0  0.378125 0.05244637078450034 0  1.008571329007178 0.2705955969954818 0  0.7724048032149464 0.1559079561351474 0  0.7203054377831548 0.04941826955193545 0  1.192836486056382 0.3562350748565544 0  0.5967108020713719 0.1479294686523888 0  1.28257088594801 0.2944411014911587 0  0.7041890234548132 0.1222025174424443 0  1.474860187679412 0.2504218616229368 0  1.406767003493824 0.2829282258560709 0  0.3201325899091991 0.05890121548989159 0  0.5979220912872258 0.2727591995766724 0  1.845656689180403 0.1998310418452388 0  2.144958525570388 0.2909790873294231 0  2.2 0.15375 0  1.57794966442982 0.3540357145964566 0  0.9483181579620558 0.1214693369582054 0  0.0496154796471391 0.333125 0  1.508991196088596 0.1421783375065625 0  0.09776612425612034 0.2204896805326566 0  1.50436820029908 0.06143401634903343 0  1.223857000523521 0.0823554862453532 0  0.2531953886959507 0.3582003209055908 0  1.153316824384777 0.1289850171317837 0  2.148922302309752 0.1258841779285271 0  1.621993280276081 0.2841214267927899 0  1.550118654119087 0.2461998729100966 0  1.327182649291491 0.1216967252533594 0  1.753125 0.04556020050186112 0  1.271875 0.04556020050186116 0  0.9824282234771738 0.05051969257615314 0  1.039510847866381 0.05683351822678641 0  1.94956388244759 0.1180512551534177 0  1.949997712993411 0.04965831614304109 0  1.771961817615021 0.1530278789497521 0  1.909246823951428 0.2812757146784527 0  1.101974016627944 0.2038045618205013 0  0.7906250000000001 0.0444674049654372 0  1.948575539857022 0.2445328248721197 0  1.697271520964565 0.1233917627620729 0  1.065625 0.3689344961371042 0  1.085849084308977 0.3170853572226867 0  0.9840604787624379 0.3582077516409966 0  1.577403511714593 0.05463601888079143 0  0.05622663515370135 0.05493816910862376 0  0.8762396958822678 0.3392249777398821 0  1.751571320346033 0.3651102912045228 0  1.055327852410105 0.111864799513911 0  0.1583785085108421 0.2994699345738728 0  0.1455283439499995 0.3542795598723423 0  2.2 0.35875 0  0.225705107073232 0.05084786997482401 0  0.1455852234589313 0.1166494778469164 0  1.466879772203159 0.3611261772912453 0  1.990280163552011 0.3564754268533217 0  1.17471064520912 0.2990917256188288 0  0.7221925551074015 0.1739659241003985 0  0 0.25625 0  2.2 0.25625 0  2.2 0.05125 0  0 0.15375 0  1.853978576207987 0.35875 0  0.21965520498276 0.1015543880164422 0  1.515638456102889 0.2882700110184686 0  0.09048297387599738 0.3637717362208066 0  2.150453692751374 0.2387066338105111 0  1.323782677156475 0.04897634338873398 0  1.409375 0.03715320121951221 0  1.406484531114799 0.1087852750766809 0  1.134375 0.03715320121951218 0  1.627401732573545 0.04552157221025036 0  0.446875 0.3713289093361426 0  2.045405893604797 0.1105340662939892 0  1.255408269734577 0.1577307500159216 0  2.028125 0.03707597992059326 0  0.04420832937638274 0.128125 0  0.5817551710628505 0.3702615006034757 0  0.1197849154434487 0.2663398672460083 0  1.248258025468107 0.2565907092181813 0  0.1300647302703173 0.0508462728378621 0  0.7738123537510222 0.2761231499240648 0  1.203125 0.0366132337404304 0  0.5444207041612499 0.111205399508622 0  0.8016457771828226 0.1964238426015905 0  2.072662025974815 0.2975086504196739 0  0.4019040438866802 0.2103993403217561 0  0.4677372330974851 0.04827477407630658 0  0.8677218578847617 0.1432970430140788 0  1.058011122005847 0.2758866204059919 0  0.4429405887974043 0.2746184809910084 0  0.5843750000000001 0.03726989681835222 0  0.6318596133730142 0.1128692182767254 0  0.4862628454464408 0.2957029785303028 0  0.7805186758662764 0.3673578380827891 0  1.887722846421017 0.1760882698830035 0  0.3498893058880703 0.256189258793856 0  1.472640588990488 0.1118278026240017 0  1.865937103925594 0.2604137786483804 0
[...]
<PointData  Vectors="f_37"> 
<DataArray  type="Float64"  Name="f_37"  NumberOfComponents="3" format="ascii">-6.1117513547576769e-07 2.0708872233575413e-08 0.0000000000000000e+00  3.7302477584388479e-07 -2.9116208642244145e-08 0.0000000000000000e+00  -5.8257845166623462e-08 -1.4241871360874521e-08 0.0000000000000000e+00  8.7195118272665053e-07 -1.1624949226937324e-08 0.0000000000000000e+00  -9.8942553647920941e-07 2.2443443655803537e-07 0.0000000000000000e+00  -7.8120818393781621e-07 3.4068550177494536e-07 0.0000000000000000e+00  -1.6720738038199385e-06 4.1305830103954347e-07 0.0000000000000000e+00  1.1898582989152559e-06 2.5963658223200355e-07 0.0000000000000000e+00  2.7980192407490520e-06 -5.5441467469133031e-07 0.0000000000000000e+00  -1.0227458288006945e-06 1.2481553076069685e-07 0.0000000000000000e+00  -1.7468326762412616e-06 1.1789773859355382e-06 0.0000000000000000e+00  7.8984776280867917e-07 2.2451736466780334e-06 0.0000000000000000e+00  -3.6398602563267314e-06 -1.3220462496335567e-06 0.0000000000000000e+00  -3.5561898704375317e-06 -8.9898451604054190e-07 0.0000000000000000e+00  -1.6519358652910704e-06 1.0496507779116446e-07 0.0000000000000000e+00  -1.4392065480448819e-06 3.4685013869847288e-07 0.0000000000000000e+00  -4.1126106111354328e-06 -1.3978068387823196e-07 0.0000000000000000e+00  -3.0156847305336719e-06 -7.8977622054946961e-08 0.0000000000000000e+00  -1.7193904887696169e-06 -2.3755705395179781e-07 0.0000000000000000e+00  -2.1578871246986307e-06 -3.8469642596509256e-07 0.0000000000000000e+00  -1.0224645705531455e-06 -4.4384159501413327e-07 0.0000000000000000e+00  -3.2620368379593935e-07 -3.0058439215955735e-07 0.0000000000000000e+00  -6.7723876035867276e-07 1.9925955336032979e-07 0.0000000000000000e+00  -3.4676319855362700e-07 3.8973070269253143e-08 0.0000000000000000e+00  -1.6593876989582554e-06 4.7548723754757532e-07 0.0000000000000000e+00  1.5000025260419569e+00 4.1261711586228379e-08 0.0000000000000000e+00  -6.5234700424412921e-07 4.2468387554967212e-07 0.0000000000000000e+00  -2.1607387103208861e-06 -7.6076622372403123e-08 0.0000000000000000e+00  -1.0111632631422202e-06 5.6726838467482960e-08 0.0000000000000000e+00  -2.6246098179145489e-06 9.2236019854240187e-08 0.0000000000000000e+00  -1.0828732815777334e-06 -2.6386364466586569e-08 0.0000000000000000e+00  8.4708694432791353e-07 -1.8559612319160927e-07 0.0000000000000000e+00  -3.8737999845651048e-08 -9.3928688543510628e-08 0.0000000000000000e+00  4.1455051156318980e-06 -1.2583152660791050e-07 0.0000000000000000e+00  -1.5320379686731053e-06 -1.7037683548910004e-07 0.0000000000000000e+00  7.5423846838860401e-08 -4.0747023852494137e-09 0.0000000000000000e+00  3.9753970501165130e-07 1.2388713653834076e-07 0.0000000000000000e+00  5.8861973700917812e-07 8.3503220621073310e-08 0.0000000000000000e+00  -3.6083676039534096e-06 -3.4966596918414255e-08 0.0000000000000000e+00  1.0381838980766145e+00 5.4286855005665970e-02 0.0000000000000000e+00  1.1236505272975970e+00 -4.8978616392753842e-03 0.0000000000000000e+00  6.0476181326518363e-01 7.3657379529046482e-03 0.0000000000000000e+00  9.3782208494653729e-01 -5.7200643850317125e-02 0.0000000000000000e+00  1.2302291861961854e+00 1.5304616329417308e-02 0.0000000000000000e+00  2.3570309307954990e-01 -5.0065454199453824e-02 0.0000000000000000e+00  1.2348939601152236e+00 -1.3633956491424746e-02 0.0000000000000000e+00  -1.8582371032233006e-06 8.9779151304147599e-09 0.0000000000000000e+00  -1.5607946547043696e-06 -2.8979470265415996e-08 0.0000000000000000e+00  -8.3721032218269333e-07 -1.4530463787798263e-07 0.0000000000000000e+00  1.2650654430332999e+00 6.0106932960178486e-04 0.0000000000000000e+00  -2.8756527810959256e-07 8.4275966088549766e-08 0.0000000000000000e+00  -2.1864991700994886e-06 2.0659893769851606e-08 0.0000000000000000e+00  1.4244872195804705e+00 2.9464135278605971e-02 0.0000000000000000e+00  2.6565239893580810e-07 2.0161519322805773e-07 0.0000000000000000e+00  2.8029485099249587e-07 3.4853776743717371e-08 0.0000000000000000e+00  2.0306681177709221e-06 3.8107847493967743e-07 0.0000000000000000e+00  9.7351706922819158e-07 -2.5996145922112076e-07 0.0000000000000000e+00  -2.1579951180020420e-06 -1.7817701125898944e-07 0.0000000000000000e+00  -6.3495578987610935e-07 -2.5845271457731769e-08 0.0000000000000000e+00  2.8677112848747067e-07 6.5900896232509216e-08 0.0000000000000000e+00  6.1939361014939444e-07 1.3478139620605752e-07 0.0000000000000000e+00  -2.8189876691879131e-06 1.0562367347302999e-07 0.0000000000000000e+00  -4.0411090314359869e-07 -1.6116245051684197e-07 0.0000000000000000e+00  1.3479281201861053e+00 2.2449796239129613e-02 0.0000000000000000e+00  1.0184552790846785e-06 -2.3732608673394980e-07 0.0000000000000000e+00  1.2748339163943356e+00 -1.0890423676090140e-02 0.0000000000000000e+00  1.6110191600075578e+00 -4.4171822155294020e-02 0.0000000000000000e+00  1.4360894766154726e+00 5.5309616213315435e-03 0.0000000000000000e+00  1.4703535566499906e+00 1.3772449878430027e-02 0.0000000000000000e+00  1.9604209499210365e+00 3.0317195161040426e-02 0.0000000000000000e+00  1.3374256274720429e+00 6.5437985978493854e-03 0.0000000000000000e+00  1.3458298349759710e+00 5.6980634312178539e-04 0.0000000000000000e+00  1.3190762025514451e+00 -7.0187223984989689e-03 0.0000000000000000e+00  1.6506244650091737e+00 -1.0199294883722668e-01 0.0000000000000000e+00  1.5663544052856011e+00 8.5793551939373200e-02 0.0000000000000000e+00  1.8654665411616358e+00 1.0277166368661437e-02 0.0000000000000000e+00  1.1249986005472652e+00 -1.6151510882000997e-07 0.0000000000000000e+00  1.1250027143899222e+00 2.9348721803133030e-08 0.0000000000000000e+00  1.7733912293093690e+00 -1.6446673751620486e-01 0.0000000000000000e+00  1.6458498681547304e+00 1.3486424895945584e-01 0.0000000000000000e+00  7.3525322150649508e-01 1.0903612733617937e-01 0.0000000000000000e+00  1.3463740738448464e+00 -1.4814634009367665e-02 0.0000000000000000e+00  1.4680687788283815e+00 3.4669223913951053e-02 0.0000000000000000e+00  1.1140914971312119e+00 1.0695638030257127e-03 0.0000000000000000e+00  1.3859368464990698e+00 -1.3254530024759029e-02 0.0000000000000000e+00  1.4201588317527651e+00 -1.3510438871933563e-02 0.0000000000000000e+00  1.2566531296709225e+00 -2.4026297519242838e-02 0.0000000000000000e+00  1.5473974141939857e+00 -1.2407155376744057e-01 0.0000000000000000e+00  1.2506561002521339e+00 -3.2756484785633690e-03 0.0000000000000000e+00  1.3017998537286186e+00 6.5429352479036036e-03 0.0000000000000000e+00  1.4174923203084620e+00 1.7545453519546315e-02 0.0000000000000000e+00  1.2234003186034215e+00 3.9215756266008069e-03 0.0000000000000000e+00  1.3926805569639515e+00 2.9710248018012418e-03 0.0000000000000000e+00  1.3125765939005665e+00 -1.9878892936757795e-03 0.0000000000000000e+00  1.0393834078339956e+00 -1.3947325607762791e-02 0.0000000000000000e+00  1.1002029722127336e+00 -3.5509104938904628e-03 0.0000000000000000e+00  -3.3017313574330337e-01 -1.4295094509109976e-02 0.0000000000000000e+00  1.7786874305911842e+00 1.2325654617078637e-01 0.0000000000000000e+00  4.1756405404165520e-01 -1.6854194249694553e-03 0.0000000000000000e+00  1.1966931418802638e+00 3.7670122924406524e-02 0.0000000000000000e+00  1.1818295495387188e+00 2.5541911512512999e-01 0.0000000000000000e+00  1.3791558730792475e+00 6.0387423324169513e-03 0.0000000000000000e+00  9.7067388304096547e-01 8.7936927060629916e-03 0.0000000000000000e+00  1.3809741197335739e+00 2.1761282921544300e-01 0.0000000000000000e+00  1.0534022986182769e+00 2.5055519843572099e-02 0.0000000000000000e+00  7.6942906212184099e-07 -1.6355480513878184e-08 0.0000000000000000e+00  1.8401068726789327e+00 -6.0746374816725797e-02 0.0000000000000000e+00  1.1435943232175085e+00 -2.5642007997456295e-01 0.0000000000000000e+00  1.6080244158381378e+00 -4.6497785935720549e-02 0.0000000000000000e+00  -7.8138523996057705e-07 -8.6373082352401184e-08 0.0000000000000000e+00  9.5638904899498878e-01 2.3948968473103791e-03 0.0000000000000000e+00  -3.4400000413463375e-06 -4.9164870344942387e-07 0.0000000000000000e+00  -6.9147638321350157e-06 2.7130304088636118e-07 0.0000000000000000e+00  1.1735695563638879e+00 -1.5662734665410707e-02 0.0000000000000000e+00  1.0811564974946155e-06 -3.1702482252211316e-08 0.0000000000000000e+00  1.8249429693804096e+00 7.8720092562837365e-02 0.0000000000000000e+00  1.0142383328364768e+00 -4.9478804562018133e-03 0.0000000000000000e+00  1.7927872807482808e+00 -1.1422834627896644e-01 0.0000000000000000e+00  -3.6504211406717596e-06 -1.9395301337200598e-07 0.0000000000000000e+00  1.7980312707515789e+00 -1.4127127054655647e-01 0.0000000000000000e+00  2.2131732347713679e-06 3.2683843071715654e-07 0.0000000000000000e+00  1.0522256183574266e+00 7.8372152064902865e-03 0.0000000000000000e+00  1.6008098820150434e+00 1.2870047115966063e-01 0.0000000000000000e+00  -2.4047041127977599e-06 -1.6375388345085671e-07 0.0000000000000000e+00  1.7211508031619795e+00 7.4347285903833674e-02 0.0000000000000000e+00  1.3597126917477198e+00 -3.0232464578269030e-01 0.0000000000000000e+00  1.3399908418915583e+00 -1.2289115255149549e-01 0.0000000000000000e+00  1.3729678277594313e+00 1.2463253126821215e-01 0.0000000000000000e+00  -1.4083130025613263e-07 2.3519266384878403e-08 0.0000000000000000e+00  1.3449288810910569e+00 2.9474933279577214e-02 0.0000000000000000e+00  1.0450125012236571e+00 -4.8594292967463742e-03 0.0000000000000000e+00  2.0791779893273613e-06 -4.8762367072950733e-07 0.0000000000000000e+00  1.1951375886532956e+00 -2.5870249589875972e-02 0.0000000000000000e+00  8.7950178509732979e-01 -8.5708733893373017e-03 0.0000000000000000e+00  1.1044017152107179e+00 -8.2502817521129933e-03 0.0000000000000000e+00  1.1358199436988721e+00 -1.9097794455334431e-02 0.0000000000000000e+00  1.0366514802375588e+00 2.1685416046767388e-03 0.0000000000000000e+00  1.9201267679465037e+00 1.8457888081850934e-01 0.0000000000000000e+00  1.4256208691445451e+00 -7.8584122010165751e-04 0.0000000000000000e+00  1.6704773114730500e-06 9.8274779692409327e-09 0.0000000000000000e+00  1.8080597674947926e-06 -5.5824038443598265e-09 0.0000000000000000e+00  -7.9528794793670434e-07 -5.5578606976437742e-08 0.0000000000000000e+00  6.5625203879656568e-01 2.0494300827467678e-08 0.0000000000000000e+00  1.6980858559023606e-06 1.5737742469549343e-07 0.0000000000000000e+00  9.9129302429672961e-01 1.2469363110568786e-02 0.0000000000000000e+00  1.6321380856758332e+00 1.2100090451210108e-01 0.0000000000000000e+00  1.3674671106009977e+00 2.0255313794895969e-02 0.0000000000000000e+00  -4.9941074383034422e-07 1.3391995807598995e-07 0.0000000000000000e+00  -2.7454612988236360e-06 3.4374695590238502e-07 0.0000000000000000e+00  -1.5905215417095158e-06 5.8028360499295678e-08 0.0000000000000000e+00  -1.3474157006128764e-06 5.2189946813435897e-08 0.0000000000000000e+00  -1.4098397421065224e-06 -8.7238134645928128e-09 0.0000000000000000e+00  1.8384957961798571e-07 8.3586636022833198e-08 0.0000000000000000e+00  -3.1844962690294535e-06 -7.2798171444120867e-08 0.0000000000000000e+00  -8.3391930256237196e-07 -1.9580790840519683e-07 0.0000000000000000e+00  2.5646767793315964e-07 -5.7414610832248017e-09 0.0000000000000000e+00  3.1185873776739159e-07 1.7744873262735108e-08 0.0000000000000000e+00  1.1790638937115395e-06 -8.6496758747544936e-08 0.0000000000000000e+00  -8.2883349806285458e-07 1.4536283976473986e-07 0.0000000000000000e+00  -2.2267876247520691e-06 2.5453622575177522e-07 0.0000000000000000e+00  -3.1520237964405156e-06 1.0107318324166300e-07 0.0000000000000000e+00  -2.6378556086839720e-06 -1.5622751344595442e-07 0.0000000000000000e+00  -1.9973563190194362e-06 -1.3647728144379359e-07 0.0000000000000000e+00  -1.1812925861603044e-06 5.0625265341933701e-09 0.0000000000000000e+00  -1.5869502437050603e-06 1.2836030310086308e-08 0.0000000000000000e+00  7.2262307873030374e-01 -4.2039037824584187e-02 0.0000000000000000e+00  8.7102614112709242e-01 1.0022999749768131e-02 0.0000000000000000e+00  8.6286060249604568e-01 -5.3595967220752098e-03 0.0000000000000000e+00  9.3474971373880256e-01 9.7185360755923031e-03 0.0000000000000000e+00  1.6567023616362222e+00 -7.0210698474114722e-02 0.0000000000000000e+00  7.9775397992428373e-03 -7.1089272132084476e-03 0.0000000000000000e+00  4.5715372516476914e-02 -2.6926061904874066e-02 0.0000000000000000e+00  1.2258723489457763e+00 5.8062869884826861e-02 0.0000000000000000e+00  9.6901777247918186e-01 8.1023118492007452e-05 0.0000000000000000e+00  1.1530042678520729e+00 -4.5491654367542135e-02 0.0000000000000000e+00  1.2310479201614528e+00 -3.4723751596493130e-02 0.0000000000000000e+00  8.2632711970098316e-01 -1.2333123456804190e-04 0.0000000000000000e+00  1.2172068654734247e+00 -3.6929049222623099e-02 0.0000000000000000e+00  1.1952277158547608e+00 -4.7464695503039452e-02 0.0000000000000000e+00  1.2583293358071368e+00 -8.0254858520887751e-03 0.0000000000000000e+00  1.1900014915087869e+00 3.0560048146466529e-02 0.0000000000000000e+00  8.6339297800438164e-01 -1.4632259951241208e-03 0.0000000000000000e+00  9.1816632853180069e-01 -3.3486505851023323e-04 0.0000000000000000e+00  8.8377077271900806e-01 -1.7672557522268768e-02 0.0000000000000000e+00  8.1097630509624308e-01 1.4412114550999257e-02 0.0000000000000000e+00  2.3112145808664872e-01 5.0761204903033638e-02 0.0000000000000000e+00  1.2235793667471040e+00 -6.9924869096090900e-02 0.0000000000000000e+00  9.2335168438578530e-01 -6.8808774976342371e-02 0.0000000000000000e+00  1.1051540757541554e+00 -1.2446428644798312e-01 0.0000000000000000e+00  1.5628583607194069e+00 -1.7065679068239709e-01 0.0000000000000000e+00  1.2608720180272355e+00 5.0726292653489576e-03 0.0000000000000000e+00  1.5340931095293604e+00 -2.5976569606000869e-02 0.0000000000000000e+00  1.4842408039934138e+00 3.2269561813615510e-02 0.0000000000000000e+00  1.2568533907875474e+00 -2.4187282573353241e-02 0.0000000000000000e+00  1.4287118920746373e+00 -1.0848956274145855e-01 0.0000000000000000e+00  1.4818487902004045e+00 -1.0227044620745089e-01 0.0000000000000000e+00  9.7526348529071194e-01 -2.2102248570006974e-02 0.0000000000000000e+00  8.0553742713054835e-02 -5.5423634110852431e-02 0.0000000000000000e+00  2.8538650673363863e-01 2.5321849322059220e-02 0.0000000000000000e+00  1.4081047290205553e+00 -1.5263244860310290e-02 0.0000000000000000e+00  9.4185680613351186e-01 -3.5211219883909172e-03 0.0000000000000000e+00  1.1595786593660746e+00 2.3484415622741887e-02 0.0000000000000000e+00  1.4687616633636116e+00 -4.5703233866629070e-02 0.0000000000000000e+00  7.8178949493610839e-01 2.1149833635456299e-02 0.0000000000000000e+00  9.0194991748008224e-01 -1.0848232834554487e-03 0.0000000000000000e+00  1.3339734394337679e+00 5.9479018383891890e-03 0.0000000000000000e+00  1.0679711456887597e+00 6.5201857635175386e-02 0.0000000000000000e+00  8.6964058530232513e-01 2.1690472053343676e-04 0.0000000000000000e+00  6.5624905688905055e-01 8.9939142050124876e-08 0.0000000000000000e+00  1.0838057009192013e+00 5.5223876221771828e-02 0.0000000000000000e+00  1.5675283823601143e+00 3.7635585980329948e-02 0.0000000000000000e+00  1.5782096065494995e+00 -3.3188195351292381e-02 0.0000000000000000e+00  1.0245813583042176e+00 1.1219997664486199e-01 0.0000000000000000e+00  1.0724808960165173e+00 6.9894697152804566e-02 0.0000000000000000e+00  7.3413980005573498e-01 5.6993013480637379e-03 0.0000000000000000e+00  8.0416349416867883e-01 8.8962187998122846e-02 0.0000000000000000e+00  1.4621039425004214e+00 1.4455836086550239e-02 0.0000000000000000e+00  1.6469269348703728e+00 1.6719901209337051e-01 0.0000000000000000e+00  1.3219962153056497e+00 1.2989691313205286e-02 0.0000000000000000e+00  1.4724519844221295e+00 4.8829313338854151e-03 0.0000000000000000e+00  1.6077909256387448e+00 -1.6982138063066480e-02 0.0000000000000000e+00  1.5020991432641646e+00 -1.3713313863883303e-01 0.0000000000000000e+00  1.1479966378562316e+00 3.6174086323168819e-02 0.0000000000000000e+00  1.3249092914018994e+00 2.1264421824735416e-03 0.0000000000000000e+00  1.3585023223948332e+00 2.6346553880037486e-02 0.0000000000000000e+00  7.7851228827463681e-01 5.0564970445804540e-03 0.0000000000000000e+00  1.6000743076818262e+00 7.6550293590642776e-02 0.0000000000000000e+00  9.4149242121874710e-01 9.3594295956901261e-02 0.0000000000000000e+00  1.3541208694022617e+00 1.1808217508554287e-02 0.0000000000000000e+00  1.2233485577044476e+00 1.6046627357879042e-01 0.0000000000000000e+00  8.7947291291029261e-01 -6.8406676152441186e-03 0.0000000000000000e+00  1.2076958191124709e+00 6.8113548294707121e-03 0.0000000000000000e+00  1.3608829915448626e+00 9.6686223936714388e-02 0.0000000000000000e+00  1.4666552667149002e+00 -1.9756714358986995e-03 0.0000000000000000e+00  1.3546364502404122e+00 1.5223394002502940e-02 0.0000000000000000e+00  1.4625519362131905e+00 -6.6824752756124376e-03 0.0000000000000000e+00  1.3726186655276547e+00 -1.2725511411228827e-02 0.0000000000000000e+00  1.5028413820352160e+00 2.4444709239133913e-02 0.0000000000000000e+00  6.5596963131522057e-01 -2.6299519202643341e-03 0.0000000000000000e+00  6.2790281183339636e-01 1.3600632573161156e-03 0.0000000000000000e+00  7.3061074392184910e-01 7.7640685294899673e-03 0.0000000000000000e+00  8.2561729220762003e-01 -2.9515889463307436e-03 0.0000000000000000e+00  1.3069707403852087e+00 3.2323555233041376e-03 0.0000000000000000e+00  7.2036655254650250e-01 -3.8118853342986362e-04 0.0000000000000000e+00  1.3447112382393873e+00 1.3280763145096604e-02 0.0000000000000000e+00  1.4323522382321343e+00 -1.0307297887669297e-02 0.0000000000000000e+00  8.0158629962540884e-01 3.1877145438490614e-02 0.0000000000000000e+00  8.2371062077062074e-01 4.1611015055435477e-02 0.0000000000000000e+00  1.3542623897648480e+00 -4.7647044190465334e-03 0.0000000000000000e+00  1.3929544427681488e+00 5.9792473058026081e-03 0.0000000000000000e+00  5.4714870280936245e-01 -3.9604705036710135e-03 0.0000000000000000e+00  1.3721153818773137e+00 -2.8738872753526549e-02 0.0000000000000000e+00  7.6692276741961152e-01 -8.5409214984526940e-03 0.0000000000000000e+00  7.8651574450005679e-01 3.6276900011913797e-04 0.0000000000000000e+00  7.3881910035163711e-01 -7.9194998049899282e-02 0.0000000000000000e+00  1.1938110619308515e+00 -4.8462303696680920e-02 0.0000000000000000e+00  6.5470110117933666e-01 2.3577981991997972e-03 0.0000000000000000e+00  1.5029490988767731e+00 1.4903151598560113e-02 0.0000000000000000e+00  1.5283081119300879e+00 4.7602809250515282e-01 0.0000000000000000e+00  1.0045611907952532e+00 1.8215340827117468e-01 0.0000000000000000e+00  7.5358941740827734e-01 5.2149882894706114e-05 0.0000000000000000e+00  1.3190455641801584e+00 -1.2561529229364554e-01 0.0000000000000000e+00  1.4489892127206856e+00 -5.4616994119420370e-01 0.0000000000000000e+00  6.8410408649475163e-01 -2.5097486155341315e-03 0.0000000000000000e+00  7.7096504979247305e-01 4.1842698835884463e-03 0.0000000000000000e+00  1.4968788773901220e+00 -2.2430397714474387e-02 0.0000000000000000e+00  3.6926651258075865e-01 7.4040294408805579e-02 0.0000000000000000e+00  1.4062539999032848e+00 1.4473841210809609e-07 0.0000000000000000e+00  1.2884447193185329e+00 6.4490033998491009e-03 0.0000000000000000e+00  7.3952202720657900e-01 -1.1641900514967327e-03 0.0000000000000000e+00  1.4062505974972013e+00 5.8577001562826989e-08 0.0000000000000000e+00  7.3938797968661485e-01 -6.8576477067658467e-04 0.0000000000000000e+00  1.8373799179436607e+00 -3.2981304537678718e-01 0.0000000000000000e+00  1.4960448054465607e+00 -2.1843607092009377e-02 0.0000000000000000e+00  7.1440083501052021e-01 9.8545064213150360e-02 0.0000000000000000e+00  1.2532838825331620e+00 -2.3120541273872613e-02 0.0000000000000000e+00  6.7647741273517725e-01 -1.2687554462096919e-03 0.0000000000000000e+00  5.1395196847384905e-01 -6.2648697467789062e-03 0.0000000000000000e+00  1.3968898400603507e+00 1.8905180674661339e-03 0.0000000000000000e+00  4.9664017794392590e-01 -6.6548952160638076e-03 0.0000000000000000e+00  6.5430193308971507e-01 4.3733652765247280e-04 0.0000000000000000e+00  1.3080413697583158e+00 -4.4