<?xml version="1.0"?>
<VTKFile type="UnstructuredGrid"  version="0.1"  >
<UnstructuredGrid>
<Piece  NumberOfPoints="2426" NumberOfCells="4534">
<Points>
<DataArray  type="Float64"  NumberOfComponents="3"  format="ascii">0 0.41 0  0 0 0  2.2 0 0  2.2 0.41 0  0.2404508497187474 0.2293892626146237 0  0.25 0.2 0  0.2404508497187474 0.1706107373853764 0  0.2154508497187474 0.1524471741852423 0  0.1845491502812526 0.1524471741852423 0  0.1595491502812526 0.1706107373853764 0  0.15 0.2 0  0.1595491502812526 0.2293892626146237 0  0.1845491502812527 0.2475528258147577 0  0.2154508497187474 0.2475528258147577 0  0.5404508497187474 0.2293892626146237 0  0.55 0.2 0  0.5404508497187474 0.1706107373853764 0  0.5154508497187473 0.1524471741852423 0  0.4845491502812526 0.1524471741852423 0  0.4595491502812526 0.1706107373853764 0  0.45 0.2 0  0.4595491502812526 0.2293892626146237 0  0.4845491502812526 0.2475528258147577 0  0.5154508497187473 0.2475528258147577 0  1.1 0 0  0 0.205 0  1.1 0.41 0  0.55 0 0  0.55 0.41 0  0.275 0 0  0.275 0.41 0  1.65 0.41 0  1.65 0 0  1.375 0 0  1.375 0.41 0  1.925 0 0  1.925 0.41 0  0.8250000000000001 0.41 0  0.8250000000000001 0 0  1.5125 0.205 0  1.7875 0.205 0  0.9625000000000001 0.205 0  1.2375 0.205 0  2.2 0.205 0  0.7560964076246335 0.2151713709677419 0  1.99375 0.2152743902439024 0  2.0625 0 0  0.6875 0 0  2.0625 0.41 0  2.2 0.3075 0  0.6875 0.41 0  1.7875 0.41 0  1.375 0.1486128048780488 0  1.5125 0 0  1.7875 0 0  1.5125 0.41 0  0.9625000000000001 0 0  0.9625000000000001 0.41 0  0.4125 0 0  0.1375 0 0  0.1375 0.41 0  0.4125 0.41 0  1.2375 0 0  1.1 0.1486128048780487 0  1.2375 0.41 0  1.65 0.1486128048780487 0  1.126715909090909 0.2793064024390244 0  1.676715909090909 0.2793064024390244 0  1.348284090909091 0.2793064024390244 0  0.34375 0.3032389320646208 0  1.894702181800738 0.1282910975492754 0  2.092797818199262 0.1282910975492754 0  1.85625 0.3075 0  0.8630851210521902 0.286932093388664 0  0.89375 0.1025 0  0.35 0.1090282786671641 0  0 0.3075 0  0 0.1025 0  0.6526217841291382 0.288229645480046 0  0.7562500000000001 0.09660248895515888 0  0.6568633732316684 0.1557582854763441 0  2.099172119769978 0.25625 0  1.002356446954348 0.1010393851523063 0  1.99375 0.08395950269330846 0  1.459960956013612 0.3075 0  1.569025960719943 0.2986889805672169 0  1.03125 0.3278689922742084 0  0.75625 0.3247156761655783 0  1.959375 0.3126371951219512 0  1.749222215368287 0.1025 0  1.275777784631713 0.1025 0  2.2 0.1025 0  1.225938124459196 0.3075 0  1.550777784631713 0.1025 0  1.44375 0.07430640243902442 0  1.16875 0.07430640243902437 0  0.3528655045338512 0.2063263890916129 0  0.5890337614812103 0.08775733857679162 0  0.8504912436891263 0.190072835691683 0  1.899250267340833 0.2229966846119207 0  0.1020898364287272 0.3140258291809757 0  1.766482954545455 0.2934032012195123 0  1.051658316544432 0.2265720188842194 0  0.2 0.3400647632937836 0  1.421109702350723 0.2261157654379721 0  0.4812500000000001 0.41 0  0.4324401666997539 0.3216425986889796 0  0.098916018031319 0.09171660955420841 0  0.9508742791313441 0.2921736960864468 0  2.13125 0 0  2.118919042110979 0.3422084711244843 0  1.30625 0.41 0  0.20625 0 0  1.597888256393107 0.2173787389261347 0  0.4812500000000001 0 0  0.4324082967851086 0.08384041677422771 0  1.829299675393195 0.07400700849299596 0  0.568219932524165 0.3212274660843853 0  1.71875 0.41 0  0.268005226542646 0.08512186835670006 0  1.16875 0.41 0  2.038220665644273 0.332420740103091 0  0.6678017527842831 0.07701763866051195 0  0.89375 0.41 0  0.5111435174287687 0.07335351331957608 0  0.176193934632343 0.0734896648625108 0  0.07390688010811153 0.1697064032433452 0  0.05452951551825875 0.25625 0  0.61875 0.41 0  1.452769549894695 0.1548122580621249 0  1.369219062229598 0.07430640243902442 0  1.30625 0 0  1.720943423819132 0.1714577452753128 0  1.157188124459196 0.205 0  1.094219062229598 0.07430640243902437 0  1.304056576180868 0.1714577452753128 0  1.67579304192913 0.07430640243902437 0  0.2672907219039591 0.3037570723459566 0  1.209670467133757 0.1362100266964769 0  1.58125 0 0  1.03125 0 0  0.06875000000000001 0.41 0  0 0.35875 0  1.58125 0.41 0  1.631724228912893 0.3381867502687533 0  0.8240147050827157 0.1225233169495944 0  1.825608881788174 0.14499488549201 0  1.85625 0 0  1.44375 0 0  1.44375 0.41 0  1.85625 0.41 0  2.13125 0.41 0  0.7562500000000001 0.41 0  0.7562500000000001 0 0  0.89375 0 0  0.34375 0 0  0.34375 0.41 0  0.20625 0.41 0  0.06875000000000001 0 0  1.16875 0 0  1.03125 0.41 0  0.61875 0 0  1.71875 0 0  1.99375 0 0  1.99375 0.41 0  0.3972301426712326 0.2593842555611471 0  1.340625 0.3489494290853124 0  1.134375 0.3489494290853123 0  1.700180620188976 0.3438659752031281 0  0.5003922072260507 0.341765274319271 0  0.6212513815748759 0.2209216137134851 0  0.6885607720119526 0.215393731583638 0  1.033412357328477 0.1612902025713047 0  2.135782184673599 0.07126652247502523 0  1.668441847249787 0.2129203728327609 0  1.295782514339747 0.2378437748815763 0  1.409375 0.3520314716057996 0  2.129248544730567 0.1906135162504124 0  2.060771381434487 0.1989445750470348 0  2.013252586573865 0.1496169464686054 0  1.942766402200229 0.1734448904596831 0  1.895522487186454 0.06076163953489683 0  2.069553871656643 0.06605731020975725 0  0.9281250000000001 0.3539050257418612 0  1.274680914880868 0.3520219391081363 0  0.3030138498135347 0.2488370856812789 0  0.8223773249563684 0.341761430177996 0  0.9018164060227267 0.2326477848736739 0  0.8143027982392851 0.2440265179987191 0  0.7225087161029304 0.2699907246386231 0  1.614713220494657 0.09473434380863296 0  0.378125 0.3566194660323104 0  0.309375 0.3566194660323104 0  1.72990325744076 0.2380068107952482 0  0.6915936999299305 0.3429472631234433 0  0.6268087624932918 0.3466455500035671 0  1.356580098625191 0.2120393231351682 0  0.3060160055995138 0.1590148921620778 0  0.3954648733249218 0.156380553890791 0  2.034370752044885 0.2668681600792073 0  1.51768709249349 0.3426260931494756 0  1.561883724969884 0.1650446847858835 0  1.197344062229598 0.2523725417393646 0  0.9281250000000001 0.05124999999999999 0  1.804085235518364 0.3468178408964637 0  1.817887819205233 0.2589243285818559 0  0.9107805776841645 0.1653834539923287 0  1.905897727272727 0.3485060975609756 0  0 0.05125 0  0.844212276491354 0.0614201194265309 0  0.378125 0.05244637078450034 0  1.008571329007178 0.2705955969954818 0  0.7724048032149464 0.1559079561351474 0  0.7203054377831548 0.04941826955193545 0  1.192836486056382 0.3562350748565544 0  0.5967108020713719 0.1479294686523888 0  1.28257088594801 0.2944411014911587 0  0.7041890234548132 0.1222025174424443 0  1.474860187679412 0.2504218616229368 0  1.406767003493824 0.2829282258560709 0  0.3201325899091991 0.05890121548989159 0  0.5979220912872258 0.2727591995766724 0  1.845656689180403 0.1998310418452388 0  2.144958525570388 0.2909790873294231 0  2.2 0.15375 0  1.57794966442982 0.3540357145964566 0  0.9483181579620558 0.1214693369582054 0  0.0496154796471391 0.333125 0  1.508991196088596 0.1421783375065625 0  0.09776612425612034 0.2204896805326566 0  1.50436820029908 0.06143401634903343 0  1.223857000523521 0.0823554862453532 0  0.2531953886959507 0.3582003209055908 0  1.153316824384777 0.1289850171317837 0  2.148922302309752 0.1258841779285271 0  1.621993280276081 0.2841214267927899 0  1.550118654119087 0.2461998729100966 0  1.327182649291491 0.1216967252533594 0  1.753125 0.04556020050186112 0  1.271875 0.04556020050186116 0  0.9824282234771738 0.05051969257615314 0  1.039510847866381 0.05683351822678641 0  1.94956388244759 0.1180512551534177 0  1.949997712993411 0.04965831614304109 0  1.771961817615021 0.1530278789497521 0  1.909246823951428 0.2812757146784527 0  1.101974016627944 0.2038045618205013 0  0.7906250000000001 0.0444674049654372 0  1.948575539857022 0.2445328248721197 0  1.697271520964565 0.1233917627620729 0  1.065625 0.3689344961371042 0  1.085849084308977 0.3170853572226867 0  0.9840604787624379 0.3582077516409966 0  1.577403511714593 0.05463601888079143 0  0.05622663515370135 0.05493816910862376 0  0.8762396958822678 0.3392249777398821 0  1.751571320346033 0.3651102912045228 0  1.055327852410105 0.111864799513911 0  0.1583785085108421 0.2994699345738728 0  0.1455283439499995 0.3542795598723423 0  2.2 0.35875 0  0.225705107073232 0.05084786997482401 0  0.1455852234589313 0.1166494778469164 0  1.466879772203159 0.3611261772912453 0  1.990280163552011 0.3564754268533217 0  1.17471064520912 0.2990917256188288 0  0.7221925551074015 0.1739659241003985 0  0 0.25625 0  2.2 0.25625 0  2.2 0.05125 0  0 0.15375 0  1.853978576207987 0.35875 0  0.21965520498276 0.1015543880164422 0  1.515638456102889 0.2882700110184686 0  0.09048297387599738 0.3637717362208066 0  2.150453692751374 0.2387066338105111 0  1.323782677156475 0.04897634338873398 0  1.409375 0.03715320121951221 0  1.406484531114799 0.1087852750766809 0  1.134375 0.03715320121951218 0  1.627401732573545 0.04552157221025036 0  0.446875 0.3713289093361426 0  2.045405893604797 0.1105340662939892 0  1.255408269734577 0.1577307500159216 0  2.028125 0.03707597992059326 0  0.04420832937638274 0.128125 0  0.5817551710628505 0.3702615006034757 0  0.1197849154434487 0.2663398672460083 0  1.248258025468107 0.2565907092181813 0  0.1300647302703173 0.0508462728378621 0  0.7738123537510222 0.2761231499240648 0  1.203125 0.0366132337404304 0  0.5444207041612499 0.111205399508622 0  0.8016457771828226 0.1964238426015905 0  2.072662025974815 0.2975086504196739 0  0.4019040438866802 0.2103993403217561 0  0.4677372330974851 0.04827477407630658 0  0.8677218578847617 0.1432970430140788 0  1.058011122005847 0.2758866204059919 0  0.4429405887974043 0.2746184809910084 0  0.5843750000000001 0.03726989681835222 0  0.6318596133730142 0.1128692182767254 0  0.4862628454464408 0.2957029785303028 0  0.7805186758662764 0.3673578380827891 0  1.887722846421017 0.1760882698830035 0  0.3498893058880703 0.256189258793856 0  1.472640588990488 0.1118278026240017 0  1.865937103925594 0.2604137786483804 0
[...]
<PointData  Vectors="f_37"> 
<DataArray  type="Float64"  Name="f_37"  NumberOfComponents="3" format="ascii">-4.9962927294821753e-07 5.7881267523295078e-08 0.0000000000000000e+00  3.1505284601472483e-07 -7.8418938094077192e-08 0.0000000000000000e+00  5.6069745343012795e-09 -7.3182696968117601e-08 0.0000000000000000e+00  1.3253516969477335e-06 1.4785853862149488e-09 0.0000000000000000e+00  -9.4658621368481842e-06 -2.1041387519779808e-06 0.0000000000000000e+00  -2.0883553267824482e-05 -1.8461896203560548e-06 0.0000000000000000e+00  -1.2861122559849499e-05 2.1203806921525336e-06 0.0000000000000000e+00  4.4449123680589615e-06 -7.6073972531251350e-06 0.0000000000000000e+00  -6.1865326654041196e-06 -9.6608903600389337e-06 0.0000000000000000e+00  -3.8486737783166629e-06 4.4077953682779552e-07 0.0000000000000000e+00  -1.8656285585155356e-06 -8.7541781663719192e-08 0.0000000000000000e+00  -9.1514571368726073e-06 2.9139671045429842e-06 0.0000000000000000e+00  -1.6374563201253883e-05 4.0384763628872458e-06 0.0000000000000000e+00  -1.8396848412719517e-06 7.9602487464619422e-06 0.0000000000000000e+00  -1.1940679977661433e-05 -6.2712205746126654e-06 0.0000000000000000e+00  -7.4520229672509318e-06 -3.5030580296101590e-06 0.0000000000000000e+00  -5.5365586952980017e-06 1.9128751818668069e-06 0.0000000000000000e+00  1.3246588211533150e-05 -1.4127653462271750e-05 0.0000000000000000e+00  1.0660985259876394e-05 -6.1902592680102727e-05 0.0000000000000000e+00  -1.0041674593245172e-04 5.9191626241790429e-05 0.0000000000000000e+00  -9.1945271420440907e-05 -4.2437284794215507e-06 0.0000000000000000e+00  -1.0115208789878269e-04 -1.9957183217951697e-05 0.0000000000000000e+00  1.0369066955929816e-05 3.4162912019622803e-05 0.0000000000000000e+00  2.0364207241786737e-05 4.1227150296799166e-05 0.0000000000000000e+00  -9.9431073765019884e-07 -9.3220499787017083e-08 0.0000000000000000e+00  1.5000026530328507e+00 -2.2059292148529641e-07 0.0000000000000000e+00  -2.1984078908568310e-06 2.8753765189461632e-08 0.0000000000000000e+00  -9.1625067029447101e-06 -7.3759362272725972e-07 0.0000000000000000e+00  -7.5653981601103876e-06 5.5148260774431881e-07 0.0000000000000000e+00  1.1488641788276870e-05 -1.4939569074120736e-06 0.0000000000000000e+00  1.3042189288983264e-05 1.9121814377742017e-06 0.0000000000000000e+00  7.3433160966620126e-07 3.9389239539145890e-08 0.0000000000000000e+00  4.1052193669458436e-07 -1.0732726445944059e-08 0.0000000000000000e+00  3.6523234717802671e-06 -2.5641582245368284e-08 0.0000000000000000e+00  2.2846509488243510e-06 -4.0220030442272644e-08 0.0000000000000000e+00  9.7853100419444515e-07 -2.1384299831006158e-08 0.0000000000000000e+00  -1.0585975815285714e-06 -4.2993661847038475e-08 0.0000000000000000e+00  -5.7836113832397403e-06 -3.7475644692029058e-08 0.0000000000000000e+00  -1.0880895584823350e-05 -4.3262297290783869e-08 0.0000000000000000e+00  1.0999757243618220e+00 1.9557293614142862e-05 0.0000000000000000e+00  1.0999441962397944e+00 -4.5301742527724859e-05 0.0000000000000000e+00  1.0992702033970916e+00 -3.2800260540233059e-03 0.0000000000000000e+00  1.0999703389327018e+00 -2.5285363018943090e-04 0.0000000000000000e+00  1.0998304063988300e+00 1.0192452544869562e-04 0.0000000000000000e+00  8.8237189375354841e-01 -8.9364069093165313e-02 0.0000000000000000e+00  1.0999235870420734e+00 -3.5251183051880660e-06 0.0000000000000000e+00  -3.9165265484473984e-06 4.5248253774635851e-08 0.0000000000000000e+00  1.1464797514650508e-06 -2.5674177651261009e-07 0.0000000000000000e+00  -1.9545554770467470e-06 -6.5088047154570389e-08 0.0000000000000000e+00  1.0997434936523469e+00 3.9218421425825628e-04 0.0000000000000000e+00  2.6966219551886214e-06 -2.6707526764417143e-09 0.0000000000000000e+00  -5.2775829457250614e-07 6.7308932118973668e-08 0.0000000000000000e+00  1.0999762103360544e+00 1.1801131469772446e-05 0.0000000000000000e+00  4.6128403860766216e-06 -5.7284083341307521e-08 0.0000000000000000e+00  -4.4154440978928984e-07 2.8044817794299523e-08 0.0000000000000000e+00  1.0049802309109934e-06 -2.2613749661750561e-09 0.0000000000000000e+00  -4.0336302072016656e-06 1.0553266836584063e-07 0.0000000000000000e+00  -1.1018817762365102e-06 -8.4172205532134602e-08 0.0000000000000000e+00  -1.0571525138971326e-05 3.7400678736597127e-07 0.0000000000000000e+00  4.5326773080564523e-07 4.0336033182536713e-07 0.0000000000000000e+00  2.8690644656593621e-07 -4.7466538076438188e-08 0.0000000000000000e+00  -1.4364978002535090e-05 -6.8483003844694869e-07 0.0000000000000000e+00  1.3936255755628193e-06 -3.8601994998044524e-08 0.0000000000000000e+00  1.0996945646478249e+00 -7.8800975115802412e-04 0.0000000000000000e+00  -5.5263534480291598e-07 -3.9866828296026216e-08 0.0000000000000000e+00  1.0999236236517076e+00 4.0468245790436945e-06 0.0000000000000000e+00  1.1004918585418548e+00 -3.4050437083836814e-04 0.0000000000000000e+00  1.0998975592823257e+00 -2.6608397131015488e-05 0.0000000000000000e+00  1.1001254757874417e+00 -6.9699195835298063e-05 0.0000000000000000e+00  1.9021688301038910e+00 -1.4501129072322316e-01 0.0000000000000000e+00  1.0999564191168736e+00 -7.8078313884560413e-05 0.0000000000000000e+00  1.0998614203769905e+00 1.6947158010162184e-05 0.0000000000000000e+00  1.0999299448395292e+00 1.3615093593754895e-04 0.0000000000000000e+00  1.1151927751458164e+00 -2.2239564117980878e-02 0.0000000000000000e+00  1.1040661335526434e+00 1.4337538626467885e-03 0.0000000000000000e+00  1.8859127944530139e+00 2.5996248406339884e-01 0.0000000000000000e+00  1.1249986242283436e+00 7.9488853482273721e-08 0.0000000000000000e+00  1.1250032666760479e+00 -4.3330776727778663e-07 0.0000000000000000e+00  1.4730845945957278e+00 -2.9565993305032789e-01 0.0000000000000000e+00  1.2051250864926186e+00 1.0417473619556494e-01 0.0000000000000000e+00  9.1866727286828365e-01 3.9908378336428796e-01 0.0000000000000000e+00  1.0999840132520149e+00 4.8052581685686238e-05 0.0000000000000000e+00  1.0987280010146299e+00 -1.7195469165934003e-03 0.0000000000000000e+00  1.0992204032659996e+00 -3.4988501210641029e-05 0.0000000000000000e+00  1.0999714747797389e+00 1.7515949720956628e-04 0.0000000000000000e+00  1.0997218552336230e+00 9.7985731280683446e-05 0.0000000000000000e+00  1.1014215859553946e+00 -5.6680314183073173e-05 0.0000000000000000e+00  1.2316842612346244e+00 -8.5170742881447353e-02 0.0000000000000000e+00  1.0998202487726989e+00 4.3707920000180496e-05 0.0000000000000000e+00  1.0992511732960151e+00 -1.8122717895591951e-04 0.0000000000000000e+00  1.0997432724290273e+00 -2.8169445309096782e-04 0.0000000000000000e+00  1.0994781572097680e+00 -8.2955543163408681e-05 0.0000000000000000e+00  1.1000412636297154e+00 -2.1606998866028045e-04 0.0000000000000000e+00  1.0996856106809709e+00 -7.1934514378522584e-05 0.0000000000000000e+00  1.0981162002813902e+00 -1.0113172250505626e-04 0.0000000000000000e+00  1.0970320681397554e+00 -4.7113833642823826e-04 0.0000000000000000e+00  -6.1597801425526577e-01 -3.6367807430473471e-02 0.0000000000000000e+00  1.5768073234545046e+00 9.6966518959375136e-02 0.0000000000000000e+00  1.0750369229144074e+00 -1.2033723057294828e-03 0.0000000000000000e+00  1.0999542022592848e+00 9.9054264604297387e-06 0.0000000000000000e+00  1.1810323210263300e+00 2.5229140121060872e-01 0.0000000000000000e+00  1.0999619473964273e+00 -8.8268478231895060e-05 0.0000000000000000e+00  1.1004471711695261e+00 -1.3226171119976808e-03 0.0000000000000000e+00  1.3811364278894469e+00 2.0351659242965839e-01 0.0000000000000000e+00  1.1000241813705247e+00 2.7524744674482596e-05 0.0000000000000000e+00  -9.1954399573285345e-06 1.7696492567713325e-06 0.0000000000000000e+00  1.4217460296443523e+00 9.3595709628504470e-02 0.0000000000000000e+00  1.1440103482365576e+00 -2.5490392799553818e-01 0.0000000000000000e+00  1.1048605218640652e+00 -3.6353482024954796e-03 0.0000000000000000e+00  -1.4875303358244148e-06 3.5451551570740128e-08 0.0000000000000000e+00  1.0947469670441801e+00 -6.5716656777359866e-05 0.0000000000000000e+00  -2.8132718731380246e-06 4.8914968651429893e-08 0.0000000000000000e+00  -1.8620646921655549e-08 -1.1603049439125907e-06 0.0000000000000000e+00  1.0999220827528304e+00 1.9510665541014584e-05 0.0000000000000000e+00  -1.0436686391803448e-05 -1.6513121000853837e-06 0.0000000000000000e+00  1.3989688326816923e+00 -8.4284849953497040e-02 0.0000000000000000e+00  1.0978566258350742e+00 1.0713722698288587e-04 0.0000000000000000e+00  1.5763350920463794e+00 -4.8643698993983617e-02 0.0000000000000000e+00  -4.6450476707037123e-06 -8.0406525520302453e-08 0.0000000000000000e+00  1.8076721099674813e+00 -1.0582266819879925e-01 0.0000000000000000e+00  -1.9289589150669849e-06 -3.9770799962492350e-08 0.0000000000000000e+00  1.0986144432252511e+00 1.2947229534069157e-04 0.0000000000000000e+00  1.4230165218855271e+00 1.8296601209846997e-01 0.0000000000000000e+00  -6.2415310196006813e-06 -3.6637078209192320e-08 0.0000000000000000e+00  1.5297095727391654e+00 -6.8787500084580802e-02 0.0000000000000000e+00  1.3611880186563143e+00 -2.9155499752562530e-01 0.0000000000000000e+00  1.3405685445468585e+00 -1.2380100092276580e-01 0.0000000000000000e+00  1.3729233796538249e+00 1.2330121744035744e-01 0.0000000000000000e+00  -5.1688775186764741e-07 -3.6073119600916953e-07 0.0000000000000000e+00  1.1000392140411026e+00 2.3988370331658783e-05 0.0000000000000000e+00  1.0965313143728153e+00 9.8602810195064374e-05 0.0000000000000000e+00  1.9228874590158151e-06 1.5870746334850043e-08 0.0000000000000000e+00  1.0998954753023467e+00 -4.0837628825894874e-05 0.0000000000000000e+00  1.1000474754396556e+00 -4.8784063178373201e-04 0.0000000000000000e+00  1.0968385199765287e+00 -3.4617454486001137e-04 0.0000000000000000e+00  1.0999347177947234e+00 -1.3426779038918881e-04 0.0000000000000000e+00  1.0972504730548611e+00 -2.9069259551221772e-04 0.0000000000000000e+00  1.9379655351959320e+00 1.5333203097340498e-01 0.0000000000000000e+00  1.0998135136525327e+00 -2.8760131885430154e-04 0.0000000000000000e+00  5.1292717273119544e-06 -6.5257064292097466e-09 0.0000000000000000e+00  -3.3203876324581030e-07 6.7449348747781996e-08 0.0000000000000000e+00  -1.0111919287680980e-06 -3.6146790652340140e-07 0.0000000000000000e+00  6.5625214952542266e-01 1.3589657308744334e-07 0.0000000000000000e+00  -2.1267293076406076e-06 1.3319887703391676e-08 0.0000000000000000e+00  1.0965513772223201e+00 1.9253932875505547e-04 0.0000000000000000e+00  1.1097568706293208e+00 3.5950162473744343e-02 0.0000000000000000e+00  1.0999639339037131e+00 1.0716253580539913e-05 0.0000000000000000e+00  -3.8484938429848477e-07 -4.2053329013531803e-10 0.0000000000000000e+00  -5.8442160871963188e-06 2.0545801793280809e-08 0.0000000000000000e+00  7.2604918849545629e-07 -4.5551748651962843e-08 0.0000000000000000e+00  -2.4104736216034788e-06 3.9002707593780999e-08 0.0000000000000000e+00  -1.4349786036030072e-06 1.1505323408539488e-07 0.0000000000000000e+00  -3.1113699491446204e-06 -3.9640324485252907e-08 0.0000000000000000e+00  -6.0008614603601059e-06 8.5855867643966002e-08 0.0000000000000000e+00  -3.7674938175948838e-06 1.2649200219420504e-07 0.0000000000000000e+00  1.3372112524401636e-05 3.4567717995897051e-06 0.0000000000000000e+00  1.2993720956931015e-05 -2.5754722689659229e-06 0.0000000000000000e+00  6.2306974571873373e-06 1.7762391043495197e-06 0.0000000000000000e+00  -1.2442166823260218e-06 4.8384310256813846e-07 0.0000000000000000e+00  1.0026432046871419e-06 8.5511423746798195e-08 0.0000000000000000e+00  -1.6399547525384772e-06 2.9647847650204059e-10 0.0000000000000000e+00  -1.3952372630493761e-06 9.6525593707245206e-07 0.0000000000000000e+00  -3.2361696828470206e-06 -4.6370747525119526e-08 0.0000000000000000e+00  -1.4356768692440670e-06 -3.4059916433054589e-08 0.0000000000000000e+00  -6.4320968746908410e-06 2.9264530390317328e-08 0.0000000000000000e+00  1.0966303419724777e+00 -4.0062815082746084e-01 0.0000000000000000e+00  1.0870447471928826e+00 -6.3056767289252155e-05 0.0000000000000000e+00  1.0889474811662054e+00 4.4189299942522904e-04 0.0000000000000000e+00  1.0933254798269914e+00 2.9127391491059003e-05 0.0000000000000000e+00  1.5064123406695054e+00 5.1652724573156492e-02 0.0000000000000000e+00  -8.5898178961804475e-02 -1.0100932000748061e-01 0.0000000000000000e+00  3.4958648036671658e-01 -2.0526413879800004e-01 0.0000000000000000e+00  1.0995909378122242e+00 -1.4902954477158785e-03 0.0000000000000000e+00  1.0962060955203472e+00 -1.7598171991654307e-04 0.0000000000000000e+00  1.0999389283542291e+00 -2.4680224828659505e-05 0.0000000000000000e+00  1.1000715910560754e+00 -1.6787262440577668e-04 0.0000000000000000e+00  1.0841585301435883e+00 3.9956156678187192e-04 0.0000000000000000e+00  1.0998866346574938e+00 4.3750035719516808e-05 0.0000000000000000e+00  1.0998868484502173e+00 1.9578328448542667e-05 0.0000000000000000e+00  1.0998882696476313e+00 1.1949888899731396e-05 0.0000000000000000e+00  1.0999502261205605e+00 -2.5132030899001967e-05 0.0000000000000000e+00  1.0874647012911645e+00 -4.4332294379088822e-04 0.0000000000000000e+00  1.0930363301543433e+00 -3.0557159289630283e-04 0.0000000000000000e+00  1.0858683504199151e+00 2.5436921596342687e-03 0.0000000000000000e+00  1.0845271141398340e+00 2.0794264164203209e-04 0.0000000000000000e+00  5.4017266763724958e-01 1.5283378974199235e-01 0.0000000000000000e+00  1.1475152996098263e+00 -7.8792256251096465e-03 0.0000000000000000e+00  1.0971679340029310e+00 -1.0094023929951719e-02 0.0000000000000000e+00  1.0776888914103029e+00 -5.9407386973020664e-02 0.0000000000000000e+00  1.1808549758425766e+00 -2.4596522964358963e-01 0.0000000000000000e+00  1.0995630711845232e+00 4.7920911313294276e-06 0.0000000000000000e+00  1.3283723611813112e+00 1.9517567913847692e-02 0.0000000000000000e+00  1.4099959236534063e+00 7.4407312074877196e-03 0.0000000000000000e+00  1.0999537130782220e+00 -4.1556887716973294e-05 0.0000000000000000e+00  1.3590332147537814e+00 -1.2714697019728013e-01 0.0000000000000000e+00  1.4730635083555175e+00 -1.2188457031457026e-01 0.0000000000000000e+00  1.1000264368120314e+00 -5.7778370344138570e-05 0.0000000000000000e+00  3.0725188713425239e-01 -1.4862088440068094e-01 0.0000000000000000e+00  6.2906760797619965e-01 4.2308092064570146e-01 0.0000000000000000e+00  1.1000074762288035e+00 5.6810404368985394e-06 0.0000000000000000e+00  1.0941604461660861e+00 4.3367788240028472e-04 0.0000000000000000e+00  1.0999054163808595e+00 8.6802916254704710e-06 0.0000000000000000e+00  1.1001412736469189e+00 -2.9903803820313494e-04 0.0000000000000000e+00  1.0634286365923764e+00 -4.2829425998054029e-03 0.0000000000000000e+00  1.0918971482468554e+00 -6.6526225981290872e-04 0.0000000000000000e+00  1.0999421124602846e+00 -3.2621409135455670e-05 0.0000000000000000e+00  1.0959053252458630e+00 -2.3212634887742975e-04 0.0000000000000000e+00  1.0889327414324264e+00 6.1313404111608806e-04 0.0000000000000000e+00  6.5624922154882070e-01 -4.4158607334304557e-08 0.0000000000000000e+00  1.1073096963683473e+00 -6.7155662969620956e-03 0.0000000000000000e+00  1.3500516843617676e+00 1.5400266666541795e-03 0.0000000000000000e+00  1.1018493659174307e+00 -1.8071176563377615e-03 0.0000000000000000e+00  1.0491137620553301e+00 1.1368139091665787e-01 0.0000000000000000e+00  1.2109801384107817e+00 6.9829410838657582e-02 0.0000000000000000e+00  1.0753908944471797e+00 -5.1451904804656321e-05 0.0000000000000000e+00  8.0966952462763875e-01 3.3898092231177977e-02 0.0000000000000000e+00  1.1000527854719864e+00 -1.6224328539618903e-04 0.0000000000000000e+00  1.2521286051923217e+00 2.7405336699789629e-01 0.0000000000000000e+00  1.0999768593168731e+00 8.0935579572917054e-05 0.0000000000000000e+00  1.1000795864860782e+00 7.7283490883915058e-05 0.0000000000000000e+00  1.5277724331384626e+00 3.1911018759999923e-02 0.0000000000000000e+00  1.5683477068159604e+00 -1.4878729740846208e-01 0.0000000000000000e+00  1.0999333192106513e+00 -5.6611121566465686e-06 0.0000000000000000e+00  1.1000985722369485e+00 1.1485118086299964e-04 0.0000000000000000e+00  1.0999364088148749e+00 6.0658106475327254e-05 0.0000000000000000e+00  1.0808389618115519e+00 1.4599516840585829e-05 0.0000000000000000e+00  1.0994868553582728e+00 -1.2389909768992906e-03 0.0000000000000000e+00  9.4113071944568361e-01 9.2881770437827832e-02 0.0000000000000000e+00  1.0999453651297053e+00 -1.3085913237750405e-05 0.0000000000000000e+00  1.2237718031913625e+00 1.5837440822912632e-01 0.0000000000000000e+00  1.0901258796553657e+00 -3.8334719946705607e-04 0.0000000000000000e+00  1.0984459464623768e+00 -1.5236201481982000e-04 0.0000000000000000e+00  1.3470084332018335e+00 7.6674388993275042e-02 0.0000000000000000e+00  1.0997124487247749e+00 -4.7529175796327751e-04 0.0000000000000000e+00  1.0998483207163887e+00 -1.0276411235792552e-05 0.0000000000000000e+00  1.0998978528167205e+00 -1.2122350281849806e-05 0.0000000000000000e+00  1.0998881415154773e+00 4.6455840750890946e-05 0.0000000000000000e+00  1.0997528844288817e+00 -7.9643728012586789e-05 0.0000000000000000e+00  1.0424408789089141e+00 2.2385390646425035e-05 0.0000000000000000e+00  1.0419490036605259e+00 -1.0050999279388687e-03 0.0000000000000000e+00  1.0608802774001702e+00 -2.8921130756044684e-03 0.0000000000000000e+00  1.0798876947232909e+00 -7.3056834772631271e-04 0.0000000000000000e+00  1.0998726368418044e+00 -6.3479058194854527e-05 0.0000000000000000e+00  1.0586215146027242e+00 -5.3014091791530834e-04 0.0000000000000000e+00  1.0998989868012858e+00 -1.0376828804847984e-05 0.0000000000000000e+00  1.1000066389914809e+00 8.2611194232129186e-05 0.0000000000000000e+00  1.1001161931640224e+00 -8.2549537959549695e-04 0.0000000000000000e+00  1.0518392573592026e+00 -9.7190649415542004e-03 0.0000000000000000e+00  1.0999127878448802e+00 9.2451828506210821e-06 0.0000000000000000e+00  1.0998458344667039e+00 -7.2388181578255970e-05 0.0000000000000000e+00  1.0106106470385046e+00 9.4212387798383495e-04 0.0000000000000000e+00  1.1007730913142888e+00 5.0028625384204657e-05 0.0000000000000000e+00  1.0721468343930400e+00 1.1478281097162214e-03 0.0000000000000000e+00  1.0756769728890632e+00 3.4630513928947900e-05 0.0000000000000000e+00  7.3855601397607651e-01 -7.9411899164224781e-02 0.0000000000000000e+00  1.1171849804684604e+00 -7.1562127005471649e-04 0.0000000000000000e+00  1.0372910619683977e+00 4.6954055646955087e-05 0.0000000000000000e+00  1.0991158936357297e+00 -1.0175805518193620e-03 0.0000000000000000e+00  1.5295897032195784e+00 4.6900001213651205e-01 0.0000000000000000e+00  1.0037891150002833e+00 1.7447451092362698e-01 0.0000000000000000e+00  1.0665963316176117e+00 1.7415933528672205e-03 0.0000000000000000e+00  1.3186957470729446e+00 -1.0680437251123814e-01 0.0000000000000000e+00  1.4524647963685977e+00 -5.4190766163519000e-01 0.0000000000000000e+00  1.0581477358557720e+00 8.0948220672515125e-04 0.0000000000000000e+00  1.0749038207568604e+00 -3.0042481172710424e-04 0.0000000000000000e+00  1.1001982648081976e+00 -1.7052065832434124e-04 0.0000000000000000e+00  7.9680685869837886e-01 2.1716302249137873e-01 0.0000000000000000e+00  1.4062544580343010e+00 1.9663184512371314e-07 0.0000000000000000e+00  1.0999116772833692e+00 1.1959154547449443e-04 0.0000000000000000e+00  1.0673093882680682e+00 -1.3871641799681038e-03 0.0000000000000000e+00  1.4062508288389481e+00 -4.3732830439528624e-07 0.0000000000000000e+00  1.0678259460243091e+00 4.7998345732756217e-04 0.0000000000000000e+00  1.8465235841983616e+00 -3.1197000858134510e-01 0.0000000000000000e+00  1.0999272861517151e+00 1.0600657608438701e-04 0.0000000000000000e+00  7.1239437355911528e-01 9.7161378246136909e-02 0.0000000000000000e+00  1.0999218018195289e+00 8.7703929668944336e-05 0.0000000000000000e+00  1.0581530622742670e+00 -5.0813556015090781e-04 0.0000000000000000e+00  9.7567982297238665e-01 6.1978611083751743e-04 0.0000000000000000e+00  1.0999756537651451e+00 1.0815904889848530e-04 0.0000000000000000e+00  9.7667934921237720e-01 -5.7125387814917748e-04 0.0000000000000000e+00  1.0412324168836666e+00 1.0224844647383837e-05 0.0000000000000000e+00  1.32677659