<?xml version="1.0"?>
<VTKFile type="UnstructuredGrid"  version="0.1"  >
<UnstructuredGrid>
<Piece  NumberOfPoints="2426" NumberOfCells="4534">
<Points>
<DataArray  type="Float64"  NumberOfComponents="3"  format="ascii">0 0.41 0  0 0 0  2.2 0 0  2.2 0.41 0  0.2404508497187474 0.2293892626146237 0  0.25 0.2 0  0.2404508497187474 0.1706107373853764 0  0.2154508497187474 0.1524471741852423 0  0.1845491502812526 0.1524471741852423 0  0.1595491502812526 0.1706107373853764 0  0.15 0.2 0  0.1595491502812526 0.2293892626146237 0  0.1845491502812527 0.2475528258147577 0  0.2154508497187474 0.2475528258147577 0  0.5404508497187474 0.2293892626146237 0  0.55 0.2 0  0.5404508497187474 0.1706107373853764 0  0.5154508497187473 0.1524471741852423 0  0.4845491502812526 0.1524471741852423 0  0.4595491502812526 0.1706107373853764 0  0.45 0.2 0  0.4595491502812526 0.2293892626146237 0  0.4845491502812526 0.2475528258147577 0  0.5154508497187473 0.2475528258147577 0  1.1 0 0  0 0.205 0  1.1 0.41 0  0.55 0 0  0.55 0.41 0  0.275 0 0  0.275 0.41 0  1.65 0.41 0  1.65 0 0  1.375 0 0  1.375 0.41 0  1.925 0 0  1.925 0.41 0  0.8250000000000001 0.41 0  0.8250000000000001 0 0  1.5125 0.205 0  1.7875 0.205 0  0.9625000000000001 0.205 0  1.2375 0.205 0  2.2 0.205 0  0.7560964076246335 0.2151713709677419 0  1.99375 0.2152743902439024 0  2.0625 0 0  0.6875 0 0  2.0625 0.41 0  2.2 0.3075 0  0.6875 0.41 0  1.7875 0.41 0  1.375 0.1486128048780488 0  1.5125 0 0  1.7875 0 0  1.5125 0.41 0  0.9625000000000001 0 0  0.9625000000000001 0.41 0  0.4125 0 0  0.1375 0 0  0.1375 0.41 0  0.4125 0.41 0  1.2375 0 0  1.1 0.1486128048780487 0  1.2375 0.41 0  1.65 0.1486128048780487 0  1.126715909090909 0.2793064024390244 0  1.676715909090909 0.2793064024390244 0  1.348284090909091 0.2793064024390244 0  0.34375 0.3032389320646208 0  1.894702181800738 0.1282910975492754 0  2.092797818199262 0.1282910975492754 0  1.85625 0.3075 0  0.8630851210521902 0.286932093388664 0  0.89375 0.1025 0  0.35 0.1090282786671641 0  0 0.3075 0  0 0.1025 0  0.6526217841291382 0.288229645480046 0  0.7562500000000001 0.09660248895515888 0  0.6568633732316684 0.1557582854763441 0  2.099172119769978 0.25625 0  1.002356446954348 0.1010393851523063 0  1.99375 0.08395950269330846 0  1.459960956013612 0.3075 0  1.569025960719943 0.2986889805672169 0  1.03125 0.3278689922742084 0  0.75625 0.3247156761655783 0  1.959375 0.3126371951219512 0  1.749222215368287 0.1025 0  1.275777784631713 0.1025 0  2.2 0.1025 0  1.225938124459196 0.3075 0  1.550777784631713 0.1025 0  1.44375 0.07430640243902442 0  1.16875 0.07430640243902437 0  0.3528655045338512 0.2063263890916129 0  0.5890337614812103 0.08775733857679162 0  0.8504912436891263 0.190072835691683 0  1.899250267340833 0.2229966846119207 0  0.1020898364287272 0.3140258291809757 0  1.766482954545455 0.2934032012195123 0  1.051658316544432 0.2265720188842194 0  0.2 0.3400647632937836 0  1.421109702350723 0.2261157654379721 0  0.4812500000000001 0.41 0  0.4324401666997539 0.3216425986889796 0  0.098916018031319 0.09171660955420841 0  0.9508742791313441 0.2921736960864468 0  2.13125 0 0  2.118919042110979 0.3422084711244843 0  1.30625 0.41 0  0.20625 0 0  1.597888256393107 0.2173787389261347 0  0.4812500000000001 0 0  0.4324082967851086 0.08384041677422771 0  1.829299675393195 0.07400700849299596 0  0.568219932524165 0.3212274660843853 0  1.71875 0.41 0  0.268005226542646 0.08512186835670006 0  1.16875 0.41 0  2.038220665644273 0.332420740103091 0  0.6678017527842831 0.07701763866051195 0  0.89375 0.41 0  0.5111435174287687 0.07335351331957608 0  0.176193934632343 0.0734896648625108 0  0.07390688010811153 0.1697064032433452 0  0.05452951551825875 0.25625 0  0.61875 0.41 0  1.452769549894695 0.1548122580621249 0  1.369219062229598 0.07430640243902442 0  1.30625 0 0  1.720943423819132 0.1714577452753128 0  1.157188124459196 0.205 0  1.094219062229598 0.07430640243902437 0  1.304056576180868 0.1714577452753128 0  1.67579304192913 0.07430640243902437 0  0.2672907219039591 0.3037570723459566 0  1.209670467133757 0.1362100266964769 0  1.58125 0 0  1.03125 0 0  0.06875000000000001 0.41 0  0 0.35875 0  1.58125 0.41 0  1.631724228912893 0.3381867502687533 0  0.8240147050827157 0.1225233169495944 0  1.825608881788174 0.14499488549201 0  1.85625 0 0  1.44375 0 0  1.44375 0.41 0  1.85625 0.41 0  2.13125 0.41 0  0.7562500000000001 0.41 0  0.7562500000000001 0 0  0.89375 0 0  0.34375 0 0  0.34375 0.41 0  0.20625 0.41 0  0.06875000000000001 0 0  1.16875 0 0  1.03125 0.41 0  0.61875 0 0  1.71875 0 0  1.99375 0 0  1.99375 0.41 0  0.3972301426712326 0.2593842555611471 0  1.340625 0.3489494290853124 0  1.134375 0.3489494290853123 0  1.700180620188976 0.3438659752031281 0  0.5003922072260507 0.341765274319271 0  0.6212513815748759 0.2209216137134851 0  0.6885607720119526 0.215393731583638 0  1.033412357328477 0.1612902025713047 0  2.135782184673599 0.07126652247502523 0  1.668441847249787 0.2129203728327609 0  1.295782514339747 0.2378437748815763 0  1.409375 0.3520314716057996 0  2.129248544730567 0.1906135162504124 0  2.060771381434487 0.1989445750470348 0  2.013252586573865 0.1496169464686054 0  1.942766402200229 0.1734448904596831 0  1.895522487186454 0.06076163953489683 0  2.069553871656643 0.06605731020975725 0  0.9281250000000001 0.3539050257418612 0  1.274680914880868 0.3520219391081363 0  0.3030138498135347 0.2488370856812789 0  0.8223773249563684 0.341761430177996 0  0.9018164060227267 0.2326477848736739 0  0.8143027982392851 0.2440265179987191 0  0.7225087161029304 0.2699907246386231 0  1.614713220494657 0.09473434380863296 0  0.378125 0.3566194660323104 0  0.309375 0.3566194660323104 0  1.72990325744076 0.2380068107952482 0  0.6915936999299305 0.3429472631234433 0  0.6268087624932918 0.3466455500035671 0  1.356580098625191 0.2120393231351682 0  0.3060160055995138 0.1590148921620778 0  0.3954648733249218 0.156380553890791 0  2.034370752044885 0.2668681600792073 0  1.51768709249349 0.3426260931494756 0  1.561883724969884 0.1650446847858835 0  1.197344062229598 0.2523725417393646 0  0.9281250000000001 0.05124999999999999 0  1.804085235518364 0.3468178408964637 0  1.817887819205233 0.2589243285818559 0  0.9107805776841645 0.1653834539923287 0  1.905897727272727 0.3485060975609756 0  0 0.05125 0  0.844212276491354 0.0614201194265309 0  0.378125 0.05244637078450034 0  1.008571329007178 0.2705955969954818 0  0.7724048032149464 0.1559079561351474 0  0.7203054377831548 0.04941826955193545 0  1.192836486056382 0.3562350748565544 0  0.5967108020713719 0.1479294686523888 0  1.28257088594801 0.2944411014911587 0  0.7041890234548132 0.1222025174424443 0  1.474860187679412 0.2504218616229368 0  1.406767003493824 0.2829282258560709 0  0.3201325899091991 0.05890121548989159 0  0.5979220912872258 0.2727591995766724 0  1.845656689180403 0.1998310418452388 0  2.144958525570388 0.2909790873294231 0  2.2 0.15375 0  1.57794966442982 0.3540357145964566 0  0.9483181579620558 0.1214693369582054 0  0.0496154796471391 0.333125 0  1.508991196088596 0.1421783375065625 0  0.09776612425612034 0.2204896805326566 0  1.50436820029908 0.06143401634903343 0  1.223857000523521 0.0823554862453532 0  0.2531953886959507 0.3582003209055908 0  1.153316824384777 0.1289850171317837 0  2.148922302309752 0.1258841779285271 0  1.621993280276081 0.2841214267927899 0  1.550118654119087 0.2461998729100966 0  1.327182649291491 0.1216967252533594 0  1.753125 0.04556020050186112 0  1.271875 0.04556020050186116 0  0.9824282234771738 0.05051969257615314 0  1.039510847866381 0.05683351822678641 0  1.94956388244759 0.1180512551534177 0  1.949997712993411 0.04965831614304109 0  1.771961817615021 0.1530278789497521 0  1.909246823951428 0.2812757146784527 0  1.101974016627944 0.2038045618205013 0  0.7906250000000001 0.0444674049654372 0  1.948575539857022 0.2445328248721197 0  1.697271520964565 0.1233917627620729 0  1.065625 0.3689344961371042 0  1.085849084308977 0.3170853572226867 0  0.9840604787624379 0.3582077516409966 0  1.577403511714593 0.05463601888079143 0  0.05622663515370135 0.05493816910862376 0  0.8762396958822678 0.3392249777398821 0  1.751571320346033 0.3651102912045228 0  1.055327852410105 0.111864799513911 0  0.1583785085108421 0.2994699345738728 0  0.1455283439499995 0.3542795598723423 0  2.2 0.35875 0  0.225705107073232 0.05084786997482401 0  0.1455852234589313 0.1166494778469164 0  1.466879772203159 0.3611261772912453 0  1.990280163552011 0.3564754268533217 0  1.17471064520912 0.2990917256188288 0  0.7221925551074015 0.1739659241003985 0  0 0.25625 0  2.2 0.25625 0  2.2 0.05125 0  0 0.15375 0  1.853978576207987 0.35875 0  0.21965520498276 0.1015543880164422 0  1.515638456102889 0.2882700110184686 0  0.09048297387599738 0.3637717362208066 0  2.150453692751374 0.2387066338105111 0  1.323782677156475 0.04897634338873398 0  1.409375 0.03715320121951221 0  1.406484531114799 0.1087852750766809 0  1.134375 0.03715320121951218 0  1.627401732573545 0.04552157221025036 0  0.446875 0.3713289093361426 0  2.045405893604797 0.1105340662939892 0  1.255408269734577 0.1577307500159216 0  2.028125 0.03707597992059326 0  0.04420832937638274 0.128125 0  0.5817551710628505 0.3702615006034757 0  0.1197849154434487 0.2663398672460083 0  1.248258025468107 0.2565907092181813 0  0.1300647302703173 0.0508462728378621 0  0.7738123537510222 0.2761231499240648 0  1.203125 0.0366132337404304 0  0.5444207041612499 0.111205399508622 0  0.8016457771828226 0.1964238426015905 0  2.072662025974815 0.2975086504196739 0  0.4019040438866802 0.2103993403217561 0  0.4677372330974851 0.04827477407630658 0  0.8677218578847617 0.1432970430140788 0  1.058011122005847 0.2758866204059919 0  0.4429405887974043 0.2746184809910084 0  0.5843750000000001 0.03726989681835222 0  0.6318596133730142 0.1128692182767254 0  0.4862628454464408 0.2957029785303028 0  0.7805186758662764 0.3673578380827891 0  1.887722846421017 0.1760882698830035 0  0.3498893058880703 0.256189258793856 0  1.472640588990488 0.1118278026240017 0  1.865937103925594 0.2604137786483804 0
[...]
<PointData  Vectors="f_37"> 
<DataArray  type="Float64"  Name="f_37"  NumberOfComponents="3" format="ascii">-5.8974871845367673e-07 2.3081346888599082e-08 0.0000000000000000e+00  3.4296251121371996e-07 -2.5529294598575338e-08 0.0000000000000000e+00  -3.1767590749240598e-07 -1.5276002575089782e-10 0.0000000000000000e+00  1.4985791631274957e-06 -3.8410442456124367e-09 0.0000000000000000e+00  -1.4920014340499514e-06 1.7953935718322347e-07 0.0000000000000000e+00  -9.3343232847886392e-07 -1.3337575077277654e-06 0.0000000000000000e+00  -1.6086530565991974e-06 -6.0257216908095868e-08 0.0000000000000000e+00  8.5193686306929984e-07 7.2845681785530173e-07 0.0000000000000000e+00  3.6739922371111295e-06 1.0805666777717508e-06 0.0000000000000000e+00  1.4172700353374645e-07 -1.8072920606614828e-07 0.0000000000000000e+00  -1.3390732333016202e-06 -7.1336450533059369e-08 0.0000000000000000e+00  3.5356442742708684e-07 2.6475846393741206e-06 0.0000000000000000e+00  -3.4408264751625903e-06 -9.4836562238767524e-07 0.0000000000000000e+00  -3.4796642462101663e-06 -1.4664849485068868e-06 0.0000000000000000e+00  -3.8112925255601320e-06 1.9563586676038300e-06 0.0000000000000000e+00  -2.2116997333426554e-06 4.5110398320695814e-06 0.0000000000000000e+00  -2.2309457069474255e-06 1.6190145927681321e-06 0.0000000000000000e+00  -2.1651303009353336e-06 4.7813300891168879e-07 0.0000000000000000e+00  -8.0398175479024186e-08 1.6061817982507211e-07 0.0000000000000000e+00  1.6523908147828333e-06 2.1215217641212660e-06 0.0000000000000000e+00  2.6650392405412540e-06 4.3223270063372098e-06 0.0000000000000000e+00  4.2624428893429070e-06 2.9358127032195809e-06 0.0000000000000000e+00  1.9836275380684975e-06 5.5729419897254117e-07 0.0000000000000000e+00  -1.0562341252886055e-06 -8.1448337404531863e-07 0.0000000000000000e+00  1.3001891794008919e-06 -5.5353135647845493e-08 0.0000000000000000e+00  1.5000025994751276e+00 -1.8328049835578580e-07 0.0000000000000000e+00  2.8145622084661987e-06 1.4647022276083445e-07 0.0000000000000000e+00  -2.5248309306674070e-06 -4.6538151099845817e-09 0.0000000000000000e+00  -9.9343427432644916e-07 -1.0042193191691990e-07 0.0000000000000000e+00  -2.9675941611823447e-06 3.7364374760151080e-08 0.0000000000000000e+00  -1.2415828368640567e-06 3.9343954464956479e-08 0.0000000000000000e+00  4.1199236226663799e-07 1.0688248273504326e-09 0.0000000000000000e+00  1.4519595262839525e-07 -2.7839047423284641e-09 0.0000000000000000e+00  2.7299918509829478e-06 -1.8646994192949393e-08 0.0000000000000000e+00  1.5225969833381265e-06 7.8616040680959075e-09 0.0000000000000000e+00  6.4857434460705170e-07 2.7089222600829955e-09 0.0000000000000000e+00  -8.1294124632742248e-07 -2.1556955468354383e-09 0.0000000000000000e+00  2.3574962576617870e-06 1.1510387923164420e-07 0.0000000000000000e+00  -7.2118943805763465e-07 9.0901561361754032e-08 0.0000000000000000e+00  1.1783128054359124e+00 -2.4100614364978832e-03 0.0000000000000000e+00  1.1796856714473234e+00 -5.6481712662199195e-05 0.0000000000000000e+00  5.2819288764976546e-01 4.0076054194735825e-02 0.0000000000000000e+00  1.0710857144757848e+00 -1.4360255861131776e-02 0.0000000000000000e+00  1.1795364171406206e+00 -3.1345123638632663e-05 0.0000000000000000e+00  2.2809815114891460e-01 -4.3594124941511936e-02 0.0000000000000000e+00  1.1796226039092128e+00 -1.8481604727211538e-05 0.0000000000000000e+00  -2.5188910804480749e-06 1.8409163940458555e-09 0.0000000000000000e+00  7.0255622695797063e-08 -2.1442970959484921e-07 0.0000000000000000e+00  -1.0633207629908805e-06 2.8700783508526325e-09 0.0000000000000000e+00  1.1672349310808179e+00 -9.2218194637828045e-06 0.0000000000000000e+00  -1.2456423886785733e-06 1.8044645701239597e-07 0.0000000000000000e+00  -7.2776918394181568e-07 4.2767694372717920e-10 0.0000000000000000e+00  1.1735701151551379e+00 9.2954969807823879e-03 0.0000000000000000e+00  3.2338327787863748e-06 -1.1676076597840903e-09 0.0000000000000000e+00  -3.9824514850898521e-07 -5.6862314146576836e-10 0.0000000000000000e+00  7.7492519539835113e-07 -2.0164835091312240e-09 0.0000000000000000e+00  -2.4930822296981116e-06 1.2538088088375812e-07 0.0000000000000000e+00  -2.2961295779978370e-06 -9.1918719701167035e-08 0.0000000000000000e+00  -1.1763798065908005e-06 -2.0072267612665232e-07 0.0000000000000000e+00  3.1594176461534074e-07 6.8783337064441518e-08 0.0000000000000000e+00  6.5575165379364657e-07 1.5132454452631168e-07 0.0000000000000000e+00  -1.9564439940994101e-06 1.2032266950087525e-07 0.0000000000000000e+00  -1.5564867430641078e-06 2.1695511850795073e-07 0.0000000000000000e+00  1.2543027860813540e+00 2.5659183137969901e-02 0.0000000000000000e+00  -3.8079663176477078e-06 -1.4229170921526926e-07 0.0000000000000000e+00  1.1791192522451375e+00 -2.1911839888393757e-04 0.0000000000000000e+00  1.4176407472932091e+00 -1.5888777095227430e-02 0.0000000000000000e+00  1.1784836638708536e+00 -1.6962275646055514e-04 0.0000000000000000e+00  1.2094363255643490e+00 -6.1802328811156248e-03 0.0000000000000000e+00  1.9791276762885859e+00 3.9956461182761263e-02 0.0000000000000000e+00  1.1778770450809812e+00 -6.5992040254903294e-05 0.0000000000000000e+00  1.1778632884585107e+00 -8.9811429582822153e-05 0.0000000000000000e+00  1.1672334451447606e+00 1.5503378336479941e-04 0.0000000000000000e+00  1.6519151883716221e+00 -6.1088338474987555e-02 0.0000000000000000e+00  1.5409130355009639e+00 3.8537361615930389e-02 0.0000000000000000e+00  1.8539819067312082e+00 -5.5347084314590475e-03 0.0000000000000000e+00  1.1249986034942905e+00 -2.4938461440763872e-07 0.0000000000000000e+00  1.1250028961265870e+00 -4.8713807567593664e-08 0.0000000000000000e+00  1.7686094977068838e+00 -1.6691128852920936e-01 0.0000000000000000e+00  1.6311685854747189e+00 1.2322893860374391e-01 0.0000000000000000e+00  8.1770872643874293e-01 1.2418862134160064e-01 0.0000000000000000e+00  1.1794716495315281e+00 -5.1411096891271712e-05 0.0000000000000000e+00  1.4203590032421314e+00 2.9649186551571137e-02 0.0000000000000000e+00  1.1383375126962467e+00 -5.0764308121109062e-05 0.0000000000000000e+00  1.1721393262159143e+00 -2.6683946819134599e-03 0.0000000000000000e+00  1.1739759989546010e+00 -6.8812193473536429e-04 0.0000000000000000e+00  1.2377500320625607e+00 -1.6464802148965306e-02 0.0000000000000000e+00  1.5454516701657912e+00 -1.1319960872235138e-01 0.0000000000000000e+00  1.1623339882205763e+00 7.6184965720697151e-05 0.0000000000000000e+00  1.1669079570634979e+00 -1.7123248717232318e-04 0.0000000000000000e+00  1.2077666599882171e+00 -1.3355601892766441e-02 0.0000000000000000e+00  1.1669480218071708e+00 -1.3384034429869942e-04 0.0000000000000000e+00  1.2432421251275303e+00 2.4945370404763554e-02 0.0000000000000000e+00  1.1664450086444997e+00 5.7996145047743786e-05 0.0000000000000000e+00  1.1071269914912556e+00 1.3038287103360705e-03 0.0000000000000000e+00  1.1196245624760797e+00 -4.6879229171095452e-02 0.0000000000000000e+00  -4.3598243260790981e-01 -4.2929592758165505e-02 0.0000000000000000e+00  1.7944392669585709e+00 1.4825886415386696e-01 0.0000000000000000e+00  4.1987558690119370e-01 1.1359405809869457e-02 0.0000000000000000e+00  1.1796640896557615e+00 2.4324623025823921e-05 0.0000000000000000e+00  1.1821129492669706e+00 2.5646309171576154e-01 0.0000000000000000e+00  1.1755464553430479e+00 1.0947396020086675e-05 0.0000000000000000e+00  1.0682925789572402e+00 -7.5257604067382133e-02 0.0000000000000000e+00  1.3838479964956609e+00 2.2158683481301014e-01 0.0000000000000000e+00  1.1740830326167147e+00 -1.1879695005747776e-02 0.0000000000000000e+00  1.7978808371673941e-06 -1.4862604129456205e-07 0.0000000000000000e+00  1.8581643652667399e+00 -7.5641738207807632e-02 0.0000000000000000e+00  1.1433232284367834e+00 -2.5655296020052765e-01 0.0000000000000000e+00  1.6102881453694875e+00 -4.7521927565469517e-02 0.0000000000000000e+00  -1.1728248924016098e-06 1.8451748536202234e-09 0.0000000000000000e+00  1.0771076011320331e+00 5.6835968523492249e-05 0.0000000000000000e+00  -3.7483209887635211e-06 -6.7385793079733695e-08 0.0000000000000000e+00  -6.7663302735995078e-06 2.7180103574544885e-07 0.0000000000000000e+00  1.1796051522542041e+00 -7.9415324988776263e-04 0.0000000000000000e+00  4.6982183371850844e-07 3.2495410370883308e-08 0.0000000000000000e+00  1.8473822083321143e+00 7.8709230564224922e-02 0.0000000000000000e+00  1.1061406879765430e+00 1.2899858328744844e-05 0.0000000000000000e+00  1.7893686487648344e+00 -1.2167850150701483e-01 0.0000000000000000e+00  -3.2220220176489246e-06 3.4087121620636626e-09 0.0000000000000000e+00  1.7986210677818988e+00 -1.4764473928030619e-01 0.0000000000000000e+00  -3.5777795517754010e-06 -6.6043177863841163e-07 0.0000000000000000e+00  1.1197295221249151e+00 -2.6734897562207215e-05 0.0000000000000000e+00  1.5956312484686492e+00 1.5045626437987480e-01 0.0000000000000000e+00  -3.8899120767653705e-06 -4.9091519189574822e-07 0.0000000000000000e+00  1.7422971307904562e+00 8.8895725537311551e-02 0.0000000000000000e+00  1.3594865993460454e+00 -3.0365256270097807e-01 0.0000000000000000e+00  1.3397629952675654e+00 -1.2244779576789221e-01 0.0000000000000000e+00  1.3729739108873078e+00 1.2508220678595808e-01 0.0000000000000000e+00  -1.0051750212594310e-06 -4.0547181912868286e-08 0.0000000000000000e+00  1.1748355942727904e+00 5.7747596438727418e-04 0.0000000000000000e+00  1.1049689321933653e+00 -2.3722385453929357e-03 0.0000000000000000e+00  -3.0275351838246845e-07 1.0240688399316722e-07 0.0000000000000000e+00  1.1795541962765181e+00 -1.2974626440829504e-04 0.0000000000000000e+00  1.0052807241270998e+00 -4.5144562254407439e-02 0.0000000000000000e+00  1.1265390283145904e+00 -2.8691731521121779e-02 0.0000000000000000e+00  1.1404728238612369e+00 1.3960305899606102e-02 0.0000000000000000e+00  1.1069729566417492e+00 -3.1152445360379837e-05 0.0000000000000000e+00  1.9254280195164302e+00 1.9696202276925204e-01 0.0000000000000000e+00  1.2515465232401799e+00 7.4465973522932962e-03 0.0000000000000000e+00  4.1143302764378735e-06 1.8723062242807641e-09 0.0000000000000000e+00  1.7286705796253934e-06 -3.4797268424937016e-07 0.0000000000000000e+00  -7.2715573825185736e-07 -4.6615838144573165e-08 0.0000000000000000e+00  6.5625206733204311e-01 -3.6973763650523776e-09 0.0000000000000000e+00  -1.5045613972689791e-06 -1.6644286509342058e-10 0.0000000000000000e+00  1.0971474311378924e+00 -1.2825702677940815e-04 0.0000000000000000e+00  1.6312404037442572e+00 7.7755439754929545e-02 0.0000000000000000e+00  1.1792165227623539e+00 -4.2977996366911803e-06 0.0000000000000000e+00  -4.2819201113692024e-07 -4.7899197441232129e-11 0.0000000000000000e+00  -4.4078387612071265e-06 -1.4916876149133902e-08 0.0000000000000000e+00  3.5601863015298398e-07 6.2591975770468135e-09 0.0000000000000000e+00  -1.8105052479932452e-06 3.9880947130868769e-09 0.0000000000000000e+00  -1.1792598947153552e-06 9.5068413834890811e-10 0.0000000000000000e+00  1.2840623485755241e-06 3.1346146775130385e-07 0.0000000000000000e+00  8.0963144064155669e-07 -3.6003753379767945e-07 0.0000000000000000e+00  -1.5802145124126074e-06 2.4787254433413308e-07 0.0000000000000000e+00  -3.2154663693355269e-07 -1.1211703433158451e-07 0.0000000000000000e+00  5.1451437777049152e-07 1.5942773063925192e-07 0.0000000000000000e+00  8.9850142628538471e-07 -7.0959400170730438e-08 0.0000000000000000e+00  -8.7047649242691649e-07 1.5655497402429039e-07 0.0000000000000000e+00  -1.6299215857396987e-06 2.7003352732068326e-07 0.0000000000000000e+00  1.8542992027115831e-06 8.1735244704209339e-07 0.0000000000000000e+00  -2.2595995922455757e-06 -2.0152294016397043e-07 0.0000000000000000e+00  -3.0809580030851099e-06 -2.4218737679017493e-10 0.0000000000000000e+00  -1.4052041593123308e-06 2.8014163218967927e-10 0.0000000000000000e+00  -4.4639002611865155e-06 4.8155747645511004e-09 0.0000000000000000e+00  7.3148765262051296e-01 -4.5331528710678443e-02 0.0000000000000000e+00  1.0322122139088941e+00 6.4074607365089678e-03 0.0000000000000000e+00  9.6262300476048956e-01 4.4078118426821432e-02 0.0000000000000000e+00  1.0677158269541933e+00 -1.1304779410430159e-04 0.0000000000000000e+00  1.6609606512965418e+00 -8.1638242474484174e-02 0.0000000000000000e+00  -1.2621480419500583e-03 -2.0795781916176388e-02 0.0000000000000000e+00  2.1789096008217060e-02 -3.1991888945555130e-02 0.0000000000000000e+00  1.1082434301903628e+00 6.9119286617298770e-02 0.0000000000000000e+00  1.0941332990574069e+00 -8.9586363641442823e-05 0.0000000000000000e+00  1.1796801867558733e+00 -3.1054787743313612e-04 0.0000000000000000e+00  1.1736440650618680e+00 -1.4364989681961558e-02 0.0000000000000000e+00  1.0144374606472433e+00 -6.0086791586977243e-04 0.0000000000000000e+00  1.1795711141914254e+00 -6.7808769024544578e-05 0.0000000000000000e+00  1.1795765541238044e+00 -5.7251654814160880e-05 0.0000000000000000e+00  1.1793441969330829e+00 -4.6809081849735884e-05 0.0000000000000000e+00  1.1796292317946924e+00 -2.6009335032660273e-05 0.0000000000000000e+00  1.0327266118656713e+00 -1.5302368313599333e-05 0.0000000000000000e+00  1.0672765290679429e+00 -1.2180150496001824e-04 0.0000000000000000e+00  9.4103079305423254e-01 -1.4732804706546491e-03 0.0000000000000000e+00  9.9176230356619499e-01 2.0942402616724913e-02 0.0000000000000000e+00  2.5948701249379730e-01 7.6706113138470366e-02 0.0000000000000000e+00  1.2269394937567184e+00 -4.1944888860269321e-02 0.0000000000000000e+00  8.8383371674521927e-01 -2.1237878590250593e-02 0.0000000000000000e+00  1.0841844656387314e+00 -9.3134034354491038e-02 0.0000000000000000e+00  1.5560606256836687e+00 -1.6859176406092594e-01 0.0000000000000000e+00  1.1583341059314072e+00 -8.3805989087872750e-05 0.0000000000000000e+00  1.5540726742082491e+00 -2.8271357047490960e-02 0.0000000000000000e+00  1.4986806544639957e+00 3.6941356412495581e-02 0.0000000000000000e+00  1.1797333526138061e+00 -1.2617922456413302e-04 0.0000000000000000e+00  1.4209367570380955e+00 -1.0873540178134504e-01 0.0000000000000000e+00  1.4757892768319334e+00 -1.0576777401715237e-01 0.0000000000000000e+00  1.1474593944903830e+00 -8.4437379285380067e-03 0.0000000000000000e+00  7.4907021169008742e-02 -6.4389287620083613e-02 0.0000000000000000e+00  3.3323819887863637e-01 3.4806662425006685e-02 0.0000000000000000e+00  1.1791010085894686e+00 -1.1682497463865449e-05 0.0000000000000000e+00  1.0757584887619511e+00 -5.5295839102169537e-04 0.0000000000000000e+00  1.1787498411370241e+00 -7.2399142768588931e-04 0.0000000000000000e+00  1.2641781775894188e+00 -1.3538601553678966e-02 0.0000000000000000e+00  8.5315792132281409e-01 -8.7821200503338448e-04 0.0000000000000000e+00  1.0498772336567461e+00 1.0947712429328108e-04 0.0000000000000000e+00  1.1794302248908124e+00 1.9927325126708424e-05 0.0000000000000000e+00  1.0218736970152091e+00 6.7462456428763043e-02 0.0000000000000000e+00  1.0384340608271818e+00 2.0978044932814729e-04 0.0000000000000000e+00  6.5624910525633662e-01 8.7059453394815200e-08 0.0000000000000000e+00  1.0769648103932736e+00 1.3796944933515560e-02 0.0000000000000000e+00  1.5856582141098667e+00 3.2888117664683851e-02 0.0000000000000000e+00  1.5678393608822216e+00 -8.4501707425940792e-02 0.0000000000000000e+00  1.1121728042563617e+00 1.1123354265860549e-01 0.0000000000000000e+00  1.0138440793900161e+00 6.6543307495496612e-02 0.0000000000000000e+00  9.1334138896091566e-01 4.0671974304049653e-02 0.0000000000000000e+00  8.3280111572130189e-01 8.6129647211668228e-02 0.0000000000000000e+00  1.2327077422380535e+00 9.6087568305298545e-03 0.0000000000000000e+00  1.6800784026624040e+00 1.9004121222235063e-01 0.0000000000000000e+00  1.1807171175149613e+00 -5.4354255788209667e-03 0.0000000000000000e+00  1.1912590976584414e+00 -7.4980929189580490e-03 0.0000000000000000e+00  1.6172369007086271e+00 -2.4543634903487620e-02 0.0000000000000000e+00  1.5016445959911153e+00 -1.4367902531840990e-01 0.0000000000000000e+00  1.1796541185607035e+00 9.8359418405960811e-07 0.0000000000000000e+00  1.1759733660995817e+00 -3.5781126093102101e-05 0.0000000000000000e+00  1.1794839949477760e+00 -8.9915919188952013e-05 0.0000000000000000e+00  9.9653144985392550e-01 -9.4264598791702248e-05 0.0000000000000000e+00  1.5474088959218339e+00 5.8598065995421958e-02 0.0000000000000000e+00  9.4156944763178652e-01 9.3855444321732942e-02 0.0000000000000000e+00  1.1772471438228760e+00 -1.9829882924587435e-04 0.0000000000000000e+00  1.2232458710861283e+00 1.6153827259113504e-01 0.0000000000000000e+00  1.0382699164620899e+00 5.9464032705657823e-04 0.0000000000000000e+00  1.1609363636816572e+00 -3.0123064987905592e-02 0.0000000000000000e+00  1.3685789149082725e+00 1.0146553796642734e-01 0.0000000000000000e+00  1.3207646489130584e+00 -9.8973673893368135e-03 0.0000000000000000e+00  1.1774560366832783e+00 -1.0045906134573635e-04 0.0000000000000000e+00  1.1780575432368490e+00 -3.8963342664351280e-04 0.0000000000000000e+00  1.1799687157466490e+00 -1.6552745431601585e-03 0.0000000000000000e+00  1.1988214556588179e+00 2.7627203191144833e-03 0.0000000000000000e+00  8.9095098051682342e-01 -7.3069873518837722e-05 0.0000000000000000e+00  8.6737672341725380e-01 -1.5749278368829073e-02 0.0000000000000000e+00  8.2581087068730041e-01 8.8980463199320767e-04 0.0000000000000000e+00  9.1549352544378371e-01 -7.6141907658351720e-03 0.0000000000000000e+00  1.1755906678717523e+00 -6.9034083915304586e-05 0.0000000000000000e+00  9.3573557709025512e-01 -7.8650618194346151e-05 0.0000000000000000e+00  1.1793855729156608e+00 -4.4777820647597188e-05 0.0000000000000000e+00  1.1780337654266617e+00 1.0145058361498364e-04 0.0000000000000000e+00  9.0787675635370779e-01 -4.6176413860652896e-02 0.0000000000000000e+00  7.9104649200284294e-01 2.2463563343177322e-02 0.0000000000000000e+00  1.1795617776366039e+00 1.4698248748677166e-05 0.0000000000000000e+00  1.1768437256576418e+00 -1.0086566445358303e-04 0.0000000000000000e+00  6.6296749424942369e-01 1.2181386246821160e-02 0.0000000000000000e+00  1.2835590622298099e+00 2.4816220446048621e-03 0.0000000000000000e+00  8.4777645133021062e-01 -3.6439866083303918e-03 0.0000000000000000e+00  9.8390662421177832e-01 1.6392221658540575e-04 0.0000000000000000e+00  7.3884060442670674e-01 -7.9317734412494290e-02 0.0000000000000000e+00  1.2125183205877810e+00 -1.6486762167845205e-02 0.0000000000000000e+00  8.8219739890078330e-01 3.6228818257735494e-05 0.0000000000000000e+00  1.4187400995341140e+00 1.7781741111833786e-02 0.0000000000000000e+00  1.5285409006425383e+00 4.7872773598136853e-01 0.0000000000000000e+00  1.0058089892832920e+00 1.8364185349405568e-01 0.0000000000000000e+00  9.5249197932939222e-01 2.0257238871120137e-04 0.0000000000000000e+00  1.3210010991681354e+00 -1.2814248099221898e-01 0.0000000000000000e+00  1.4477215573635824e+00 -5.4629632813137774e-01 0.0000000000000000e+00  9.2959366131226551e-01 -7.2600730735773429e-04 0.0000000000000000e+00  9.7467731293435655e-01 7.0543760387690928e-05 0.0000000000000000e+00  1.2965266064163412e+00 4.4519416332150029e-02 0.0000000000000000e+00  4.5096145524170084e-01 9.2812165744225961e-02 0.0000000000000000e+00  1.4062541595396900e+00 -5.0270456545511611e-08 0.0000000000000000e+00  1.1794783915632301e+00 -4.6842678271442717e-05 0.0000000000000000e+00  9.5293663515331684e-01 -3.6223799190523282e-04 0.0000000000000000e+00  1.4062507149477796e+00 -1.0568855734713591e-07 0.0000000000000000e+00  9.5249045582980285e-01 1.7010039879417386e-04 0.0000000000000000e+00  1.8353541736372689e+00 -3.3320663606597167e-01 0.0000000000000000e+00  1.1788453825971636e+00 -2.0132358416425069e-03 0.0000000000000000e+00  7.1478148890766313e-01 9.8980974088347412e-02 0.0000000000000000e+00  1.1795569196246949e+00 -4.8387525019211316e-05 0.0000000000000000e+00  9.2344488443188888e-01 -5.6857841321197372e-03 0.0000000000000000e+00  7.8084553223679576e-01 1.0690536894056581e-03 0.0000000000000000e+00  1.1726509337167641e+00 2.3510039916830950e-03 0.0000000000000000e+00  6.4803223527615228e-01 -2.9143308666056775e-02 0.0000000000000000e+00  8.8970888998481679e-01 -7.4815470098309461e-06 0.0000000000000000e+00  1.32062388