<?xml version="1.0"?>
<VTKFile type="UnstructuredGrid"  version="0.1"  >
<UnstructuredGrid>
<Piece  NumberOfPoints="2426" NumberOfCells="4534">
<Points>
<DataArray  type="Float64"  NumberOfComponents="3"  format="ascii">0 0.41 0  0 0 0  2.2 0 0  2.2 0.41 0  0.2404508497187474 0.2293892626146237 0  0.25 0.2 0  0.2404508497187474 0.1706107373853764 0  0.2154508497187474 0.1524471741852423 0  0.1845491502812526 0.1524471741852423 0  0.1595491502812526 0.1706107373853764 0  0.15 0.2 0  0.1595491502812526 0.2293892626146237 0  0.1845491502812527 0.2475528258147577 0  0.2154508497187474 0.2475528258147577 0  0.5404508497187474 0.2293892626146237 0  0.55 0.2 0  0.5404508497187474 0.1706107373853764 0  0.5154508497187473 0.1524471741852423 0  0.4845491502812526 0.1524471741852423 0  0.4595491502812526 0.1706107373853764 0  0.45 0.2 0  0.4595491502812526 0.2293892626146237 0  0.4845491502812526 0.2475528258147577 0  0.5154508497187473 0.2475528258147577 0  1.1 0 0  0 0.205 0  1.1 0.41 0  0.55 0 0  0.55 0.41 0  0.275 0 0  0.275 0.41 0  1.65 0.41 0  1.65 0 0  1.375 0 0  1.375 0.41 0  1.925 0 0  1.925 0.41 0  0.8250000000000001 0.41 0  0.8250000000000001 0 0  1.5125 0.205 0  1.7875 0.205 0  0.9625000000000001 0.205 0  1.2375 0.205 0  2.2 0.205 0  0.7560964076246335 0.2151713709677419 0  1.99375 0.2152743902439024 0  2.0625 0 0  0.6875 0 0  2.0625 0.41 0  2.2 0.3075 0  0.6875 0.41 0  1.7875 0.41 0  1.375 0.1486128048780488 0  1.5125 0 0  1.7875 0 0  1.5125 0.41 0  0.9625000000000001 0 0  0.9625000000000001 0.41 0  0.4125 0 0  0.1375 0 0  0.1375 0.41 0  0.4125 0.41 0  1.2375 0 0  1.1 0.1486128048780487 0  1.2375 0.41 0  1.65 0.1486128048780487 0  1.126715909090909 0.2793064024390244 0  1.676715909090909 0.2793064024390244 0  1.348284090909091 0.2793064024390244 0  0.34375 0.3032389320646208 0  1.894702181800738 0.1282910975492754 0  2.092797818199262 0.1282910975492754 0  1.85625 0.3075 0  0.8630851210521902 0.286932093388664 0  0.89375 0.1025 0  0.35 0.1090282786671641 0  0 0.3075 0  0 0.1025 0  0.6526217841291382 0.288229645480046 0  0.7562500000000001 0.09660248895515888 0  0.6568633732316684 0.1557582854763441 0  2.099172119769978 0.25625 0  1.002356446954348 0.1010393851523063 0  1.99375 0.08395950269330846 0  1.459960956013612 0.3075 0  1.569025960719943 0.2986889805672169 0  1.03125 0.3278689922742084 0  0.75625 0.3247156761655783 0  1.959375 0.3126371951219512 0  1.749222215368287 0.1025 0  1.275777784631713 0.1025 0  2.2 0.1025 0  1.225938124459196 0.3075 0  1.550777784631713 0.1025 0  1.44375 0.07430640243902442 0  1.16875 0.07430640243902437 0  0.3528655045338512 0.2063263890916129 0  0.5890337614812103 0.08775733857679162 0  0.8504912436891263 0.190072835691683 0  1.899250267340833 0.2229966846119207 0  0.1020898364287272 0.3140258291809757 0  1.766482954545455 0.2934032012195123 0  1.051658316544432 0.2265720188842194 0  0.2 0.3400647632937836 0  1.421109702350723 0.2261157654379721 0  0.4812500000000001 0.41 0  0.4324401666997539 0.3216425986889796 0  0.098916018031319 0.09171660955420841 0  0.9508742791313441 0.2921736960864468 0  2.13125 0 0  2.118919042110979 0.3422084711244843 0  1.30625 0.41 0  0.20625 0 0  1.597888256393107 0.2173787389261347 0  0.4812500000000001 0 0  0.4324082967851086 0.08384041677422771 0  1.829299675393195 0.07400700849299596 0  0.568219932524165 0.3212274660843853 0  1.71875 0.41 0  0.268005226542646 0.08512186835670006 0  1.16875 0.41 0  2.038220665644273 0.332420740103091 0  0.6678017527842831 0.07701763866051195 0  0.89375 0.41 0  0.5111435174287687 0.07335351331957608 0  0.176193934632343 0.0734896648625108 0  0.07390688010811153 0.1697064032433452 0  0.05452951551825875 0.25625 0  0.61875 0.41 0  1.452769549894695 0.1548122580621249 0  1.369219062229598 0.07430640243902442 0  1.30625 0 0  1.720943423819132 0.1714577452753128 0  1.157188124459196 0.205 0  1.094219062229598 0.07430640243902437 0  1.304056576180868 0.1714577452753128 0  1.67579304192913 0.07430640243902437 0  0.2672907219039591 0.3037570723459566 0  1.209670467133757 0.1362100266964769 0  1.58125 0 0  1.03125 0 0  0.06875000000000001 0.41 0  0 0.35875 0  1.58125 0.41 0  1.631724228912893 0.3381867502687533 0  0.8240147050827157 0.1225233169495944 0  1.825608881788174 0.14499488549201 0  1.85625 0 0  1.44375 0 0  1.44375 0.41 0  1.85625 0.41 0  2.13125 0.41 0  0.7562500000000001 0.41 0  0.7562500000000001 0 0  0.89375 0 0  0.34375 0 0  0.34375 0.41 0  0.20625 0.41 0  0.06875000000000001 0 0  1.16875 0 0  1.03125 0.41 0  0.61875 0 0  1.71875 0 0  1.99375 0 0  1.99375 0.41 0  0.3972301426712326 0.2593842555611471 0  1.340625 0.3489494290853124 0  1.134375 0.3489494290853123 0  1.700180620188976 0.3438659752031281 0  0.5003922072260507 0.341765274319271 0  0.6212513815748759 0.2209216137134851 0  0.6885607720119526 0.215393731583638 0  1.033412357328477 0.1612902025713047 0  2.135782184673599 0.07126652247502523 0  1.668441847249787 0.2129203728327609 0  1.295782514339747 0.2378437748815763 0  1.409375 0.3520314716057996 0  2.129248544730567 0.1906135162504124 0  2.060771381434487 0.1989445750470348 0  2.013252586573865 0.1496169464686054 0  1.942766402200229 0.1734448904596831 0  1.895522487186454 0.06076163953489683 0  2.069553871656643 0.06605731020975725 0  0.9281250000000001 0.3539050257418612 0  1.274680914880868 0.3520219391081363 0  0.3030138498135347 0.2488370856812789 0  0.8223773249563684 0.341761430177996 0  0.9018164060227267 0.2326477848736739 0  0.8143027982392851 0.2440265179987191 0  0.7225087161029304 0.2699907246386231 0  1.614713220494657 0.09473434380863296 0  0.378125 0.3566194660323104 0  0.309375 0.3566194660323104 0  1.72990325744076 0.2380068107952482 0  0.6915936999299305 0.3429472631234433 0  0.6268087624932918 0.3466455500035671 0  1.356580098625191 0.2120393231351682 0  0.3060160055995138 0.1590148921620778 0  0.3954648733249218 0.156380553890791 0  2.034370752044885 0.2668681600792073 0  1.51768709249349 0.3426260931494756 0  1.561883724969884 0.1650446847858835 0  1.197344062229598 0.2523725417393646 0  0.9281250000000001 0.05124999999999999 0  1.804085235518364 0.3468178408964637 0  1.817887819205233 0.2589243285818559 0  0.9107805776841645 0.1653834539923287 0  1.905897727272727 0.3485060975609756 0  0 0.05125 0  0.844212276491354 0.0614201194265309 0  0.378125 0.05244637078450034 0  1.008571329007178 0.2705955969954818 0  0.7724048032149464 0.1559079561351474 0  0.7203054377831548 0.04941826955193545 0  1.192836486056382 0.3562350748565544 0  0.5967108020713719 0.1479294686523888 0  1.28257088594801 0.2944411014911587 0  0.7041890234548132 0.1222025174424443 0  1.474860187679412 0.2504218616229368 0  1.406767003493824 0.2829282258560709 0  0.3201325899091991 0.05890121548989159 0  0.5979220912872258 0.2727591995766724 0  1.845656689180403 0.1998310418452388 0  2.144958525570388 0.2909790873294231 0  2.2 0.15375 0  1.57794966442982 0.3540357145964566 0  0.9483181579620558 0.1214693369582054 0  0.0496154796471391 0.333125 0  1.508991196088596 0.1421783375065625 0  0.09776612425612034 0.2204896805326566 0  1.50436820029908 0.06143401634903343 0  1.223857000523521 0.0823554862453532 0  0.2531953886959507 0.3582003209055908 0  1.153316824384777 0.1289850171317837 0  2.148922302309752 0.1258841779285271 0  1.621993280276081 0.2841214267927899 0  1.550118654119087 0.2461998729100966 0  1.327182649291491 0.1216967252533594 0  1.753125 0.04556020050186112 0  1.271875 0.04556020050186116 0  0.9824282234771738 0.05051969257615314 0  1.039510847866381 0.05683351822678641 0  1.94956388244759 0.1180512551534177 0  1.949997712993411 0.04965831614304109 0  1.771961817615021 0.1530278789497521 0  1.909246823951428 0.2812757146784527 0  1.101974016627944 0.2038045618205013 0  0.7906250000000001 0.0444674049654372 0  1.948575539857022 0.2445328248721197 0  1.697271520964565 0.1233917627620729 0  1.065625 0.3689344961371042 0  1.085849084308977 0.3170853572226867 0  0.9840604787624379 0.3582077516409966 0  1.577403511714593 0.05463601888079143 0  0.05622663515370135 0.05493816910862376 0  0.8762396958822678 0.3392249777398821 0  1.751571320346033 0.3651102912045228 0  1.055327852410105 0.111864799513911 0  0.1583785085108421 0.2994699345738728 0  0.1455283439499995 0.3542795598723423 0  2.2 0.35875 0  0.225705107073232 0.05084786997482401 0  0.1455852234589313 0.1166494778469164 0  1.466879772203159 0.3611261772912453 0  1.990280163552011 0.3564754268533217 0  1.17471064520912 0.2990917256188288 0  0.7221925551074015 0.1739659241003985 0  0 0.25625 0  2.2 0.25625 0  2.2 0.05125 0  0 0.15375 0  1.853978576207987 0.35875 0  0.21965520498276 0.1015543880164422 0  1.515638456102889 0.2882700110184686 0  0.09048297387599738 0.3637717362208066 0  2.150453692751374 0.2387066338105111 0  1.323782677156475 0.04897634338873398 0  1.409375 0.03715320121951221 0  1.406484531114799 0.1087852750766809 0  1.134375 0.03715320121951218 0  1.627401732573545 0.04552157221025036 0  0.446875 0.3713289093361426 0  2.045405893604797 0.1105340662939892 0  1.255408269734577 0.1577307500159216 0  2.028125 0.03707597992059326 0  0.04420832937638274 0.128125 0  0.5817551710628505 0.3702615006034757 0  0.1197849154434487 0.2663398672460083 0  1.248258025468107 0.2565907092181813 0  0.1300647302703173 0.0508462728378621 0  0.7738123537510222 0.2761231499240648 0  1.203125 0.0366132337404304 0  0.5444207041612499 0.111205399508622 0  0.8016457771828226 0.1964238426015905 0  2.072662025974815 0.2975086504196739 0  0.4019040438866802 0.2103993403217561 0  0.4677372330974851 0.04827477407630658 0  0.8677218578847617 0.1432970430140788 0  1.058011122005847 0.2758866204059919 0  0.4429405887974043 0.2746184809910084 0  0.5843750000000001 0.03726989681835222 0  0.6318596133730142 0.1128692182767254 0  0.4862628454464408 0.2957029785303028 0  0.7805186758662764 0.3673578380827891 0  1.887722846421017 0.1760882698830035 0  0.3498893058880703 0.256189258793856 0  1.472640588990488 0.1118278026240017 0  1.865937103925594 0.2604137786483804 0
[...]
<PointData  Vectors="f_37"> 
<DataArray  type="Float64"  Name="f_37"  NumberOfComponents="3" format="ascii">-5.9810382517882691e-07 2.0816782013871485e-08 0.0000000000000000e+00  3.5444020388422509e-07 -2.9412949614584713e-08 0.0000000000000000e+00  -3.6200137869818364e-07 -3.6090870846674462e-10 0.0000000000000000e+00  1.4437952949824080e-06 -3.1517796003589264e-09 0.0000000000000000e+00  -9.3178132186222324e-07 3.9732380625904994e-07 0.0000000000000000e+00  -8.9979864018204812e-07 7.2072476381836097e-07 0.0000000000000000e+00  -1.8838709082875107e-06 5.4929404546630760e-07 0.0000000000000000e+00  1.2582574196576085e-06 3.5535775971137628e-07 0.0000000000000000e+00  2.9357146820802109e-06 -5.6705056946647776e-07 0.0000000000000000e+00  -1.2167083313223244e-06 1.8617220000317973e-07 0.0000000000000000e+00  -1.6933900786381076e-06 1.3076350311113540e-06 0.0000000000000000e+00  1.4322327150634968e-06 2.1854976071348392e-06 0.0000000000000000e+00  -3.2034612568526081e-06 -1.7231177432244791e-06 0.0000000000000000e+00  -3.8108615120835441e-06 -1.1339059212061831e-06 0.0000000000000000e+00  -4.8494954366866141e-07 -2.7048880217206232e-06 0.0000000000000000e+00  -1.2236363677042951e-06 -6.1807421214062512e-06 0.0000000000000000e+00  -5.6015510616771750e-06 -2.0401820203916727e-06 0.0000000000000000e+00  -3.3396132348533299e-06 4.7318104939105192e-07 0.0000000000000000e+00  2.9376795397697940e-07 7.3855955574645958e-07 0.0000000000000000e+00  3.4152861854462300e-07 -4.1402848324177067e-06 0.0000000000000000e+00  -5.2788499305927763e-07 -4.8026393559081177e-06 0.0000000000000000e+00  -5.8852411717282573e-09 -3.1190244585959966e-06 0.0000000000000000e+00  -6.5178184840163810e-07 -3.0083683878437300e-07 0.0000000000000000e+00  2.6351400274655183e-07 -3.0468600324109699e-07 0.0000000000000000e+00  -2.3496857479644891e-06 -3.6258078894970531e-07 0.0000000000000000e+00  1.5000025679179014e+00 7.9316246644746960e-08 0.0000000000000000e+00  -3.3395486864289898e-06 -6.0072912449848355e-07 0.0000000000000000e+00  -1.9131314254891204e-06 8.0876985971205796e-08 0.0000000000000000e+00  -1.0687773342508691e-06 1.2061015763860975e-07 0.0000000000000000e+00  -2.6244203428325793e-06 7.5777084348061367e-08 0.0000000000000000e+00  -1.2436380561129597e-06 -1.8593760084426888e-08 0.0000000000000000e+00  5.9975571323641656e-07 1.5166250407635994e-08 0.0000000000000000e+00  2.4490499112689398e-07 -1.2584275329443618e-08 0.0000000000000000e+00  -2.8537784539378207e-07 2.6937905493249291e-07 0.0000000000000000e+00  6.5277175860019755e-07 -5.1116283720725250e-07 0.0000000000000000e+00  5.8946761212408849e-07 5.6006652884233960e-10 0.0000000000000000e+00  -7.7547627249684574e-07 -3.1881405496037280e-10 0.0000000000000000e+00  -1.6235047780950756e-06 -2.4932080763294254e-07 0.0000000000000000e+00  -8.0858032784628891e-07 -6.3080502432613910e-07 0.0000000000000000e+00  1.1333740700906567e+00 -5.8203440292174478e-03 0.0000000000000000e+00  1.2033253644625412e+00 -1.6688221696901239e-03 0.0000000000000000e+00  6.1297174894429385e-01 5.6890703486714425e-03 0.0000000000000000e+00  8.7283474122878468e-01 4.3885710333856194e-02 0.0000000000000000e+00  1.2034509443611738e+00 -2.1113961605293391e-05 0.0000000000000000e+00  2.4854916453391532e-01 -9.1789900120292381e-02 0.0000000000000000e+00  1.2035988376465405e+00 -9.2248934158546255e-05 0.0000000000000000e+00  -2.3230438585167630e-06 1.6330831824425709e-09 0.0000000000000000e+00  -4.0214677963925083e-06 3.1428807654081407e-08 0.0000000000000000e+00  -9.7789124311768516e-07 1.6764917234248972e-09 0.0000000000000000e+00  1.1780940372123829e+00 3.4930680278250079e-05 0.0000000000000000e+00  1.4877907351128099e-06 9.2758357386868072e-08 0.0000000000000000e+00  -7.1292479327040429e-07 -4.0722118527472121e-09 0.0000000000000000e+00  1.1875201868210774e+00 -8.9044107976999579e-03 0.0000000000000000e+00  2.7145433466993336e-06 2.2096854145666237e-08 0.0000000000000000e+00  -4.3541253909296605e-07 1.5084079197695070e-09 0.0000000000000000e+00  -2.3565114885220446e-07 6.5068586335029793e-08 0.0000000000000000e+00  4.5707605391061261e-07 2.0705679830439249e-07 0.0000000000000000e+00  2.0587820206054093e-06 3.1094177706717140e-07 0.0000000000000000e+00  2.8532772906947676e-07 -1.8290322323071433e-08 0.0000000000000000e+00  3.3098291295817695e-07 5.4075112481723700e-08 0.0000000000000000e+00  6.2427497924627660e-07 1.3282881177170369e-07 0.0000000000000000e+00  -3.4518298961728089e-06 8.6477963806534542e-08 0.0000000000000000e+00  3.6479843389893017e-06 -9.9319663157248822e-08 0.0000000000000000e+00  1.3721524953003015e+00 2.9288437930579274e-02 0.0000000000000000e+00  2.7975656472980672e-06 7.0608200492834477e-07 0.0000000000000000e+00  1.1958084630369610e+00 3.5906959879409488e-03 0.0000000000000000e+00  1.5382337551352658e+00 5.2387232747612301e-03 0.0000000000000000e+00  1.2065771325416408e+00 -7.4358972286378009e-03 0.0000000000000000e+00  1.3941472162822008e+00 -6.6039004252457251e-03 0.0000000000000000e+00  1.9615847211957980e+00 3.4298715961375292e-02 0.0000000000000000e+00  1.1983343238751742e+00 -2.4850242196924096e-04 0.0000000000000000e+00  1.1986273953269186e+00 -8.1866611864110558e-05 0.0000000000000000e+00  1.1785859967922565e+00 -1.5714788316546584e-04 0.0000000000000000e+00  1.6545459932172317e+00 -7.5972470047824481e-02 0.0000000000000000e+00  1.5547177588045811e+00 7.2437152234965108e-02 0.0000000000000000e+00  1.8671506670016973e+00 5.3616520997327288e-03 0.0000000000000000e+00  1.1249986070293234e+00 -1.6683574779889883e-07 0.0000000000000000e+00  1.1250028206750464e+00 4.1396076419130425e-08 0.0000000000000000e+00  1.7891943837246236e+00 -1.8708144407966210e-01 0.0000000000000000e+00  1.6635399781664542e+00 1.5075375552815515e-01 0.0000000000000000e+00  6.9735528102922284e-01 9.7334055662694707e-02 0.0000000000000000e+00  1.2029222593289060e+00 -6.5487319874242032e-06 0.0000000000000000e+00  1.4869389180485566e+00 -2.2171075516608921e-02 0.0000000000000000e+00  1.1342833033851389e+00 -9.8208188885000179e-06 0.0000000000000000e+00  1.2266618548070860e+00 1.9748123986522231e-02 0.0000000000000000e+00  1.2148297226969178e+00 -5.8231112042285860e-03 0.0000000000000000e+00  1.2709924763501528e+00 8.3691549951964914e-03 0.0000000000000000e+00  1.5308577093758438e+00 -1.2073066238713387e-01 0.0000000000000000e+00  1.1699409440157083e+00 6.8401677310077395e-06 0.0000000000000000e+00  1.1768087529004738e+00 -3.9652133772502247e-04 0.0000000000000000e+00  1.3097375663783966e+00 -2.7477233288087970e-02 0.0000000000000000e+00  1.1778160280048120e+00 -1.4048235650900739e-04 0.0000000000000000e+00  1.4138585944853659e+00 -2.0598151941809983e-02 0.0000000000000000e+00  1.1905301665529902e+00 3.9387442207266012e-03 0.0000000000000000e+00  1.1021328999290512e+00 -1.1412352863959644e-02 0.0000000000000000e+00  1.1169816428370956e+00 1.6596574576217703e-03 0.0000000000000000e+00  -3.6975520090313213e-01 -3.9769692908394320e-02 0.0000000000000000e+00  1.7706600023311005e+00 1.2002754480264126e-01 0.0000000000000000e+00  4.6416403195106620e-01 4.1915657435508749e-02 0.0000000000000000e+00  1.2036730694672806e+00 -3.4192301075764933e-04 0.0000000000000000e+00  1.1820381729346221e+00 2.5590149438711635e-01 0.0000000000000000e+00  1.1948737339464428e+00 -1.3679716537627526e-03 0.0000000000000000e+00  9.2378084256325377e-01 -4.6336392799323903e-02 0.0000000000000000e+00  1.3819477053745759e+00 2.1858670781102246e-01 0.0000000000000000e+00  1.1671629600698321e+00 -3.1103200792511124e-02 0.0000000000000000e+00  2.6451443740425106e-07 1.5151720555033207e-08 0.0000000000000000e+00  1.8498971952601690e+00 -5.6043854874057678e-02 0.0000000000000000e+00  1.1433884742809557e+00 -2.5632819232625659e-01 0.0000000000000000e+00  1.6236860065404259e+00 -4.1648213002924116e-02 0.0000000000000000e+00  -1.1165204682385935e-06 1.4271376368121956e-09 0.0000000000000000e+00  1.0557259799227618e+00 1.1398520897094018e-04 0.0000000000000000e+00  7.8479200135367711e-07 1.8796218312247097e-08 0.0000000000000000e+00  -6.7479300873651794e-06 2.5812377637028381e-07 0.0000000000000000e+00  1.1810213926371282e+00 -1.0500862434100953e-02 0.0000000000000000e+00  2.1757173540580373e-06 5.6398570606229848e-08 0.0000000000000000e+00  1.8284183964265432e+00 8.7196150674759498e-02 0.0000000000000000e+00  1.0913062026657070e+00 -1.5584484942321043e-04 0.0000000000000000e+00  1.8065504855943730e+00 -1.2430897621853160e-01 0.0000000000000000e+00  -2.8765396271448149e-06 4.3050894851169726e-09 0.0000000000000000e+00  1.7990737618486465e+00 -1.4457828251981075e-01 0.0000000000000000e+00  -2.8159165193688870e-06 1.1079485606506419e-07 0.0000000000000000e+00  1.1090217697618583e+00 7.0835006553531665e-05 0.0000000000000000e+00  1.6037792573376464e+00 1.2456930415316984e-01 0.0000000000000000e+00  -3.2287764854083949e-06 2.8730221794406299e-07 0.0000000000000000e+00  1.7162211281449882e+00 7.6993472677557684e-02 0.0000000000000000e+00  1.3595270878342014e+00 -3.0307354813751741e-01 0.0000000000000000e+00  1.3398771526328312e+00 -1.2245968845868800e-01 0.0000000000000000e+00  1.3730043363129001e+00 1.2500783827422737e-01 0.0000000000000000e+00  6.3859101816365729e-07 1.1999207920090814e-07 0.0000000000000000e+00  1.1741923025239016e+00 9.5546932446606732e-03 0.0000000000000000e+00  1.0951363371492266e+00 -3.7639555467793163e-02 0.0000000000000000e+00  2.0149893850348894e-07 2.5985015928941854e-07 0.0000000000000000e+00  1.2004339797353278e+00 -1.8127761426790262e-03 0.0000000000000000e+00  7.5194866201430788e-01 4.3457082046003438e-02 0.0000000000000000e+00  1.1552575708491830e+00 -5.0648205160513009e-03 0.0000000000000000e+00  1.0347913669082140e+00 1.4996081674948411e-02 0.0000000000000000e+00  1.0926717929010505e+00 8.1413889721243982e-04 0.0000000000000000e+00  1.9211713086788775e+00 1.8730050951407209e-01 0.0000000000000000e+00  1.4048860375435230e+00 4.5013219130694795e-02 0.0000000000000000e+00  3.9417790387807455e-06 -8.6107350518549054e-09 0.0000000000000000e+00  -3.2917689339608952e-06 2.9117898771096523e-07 0.0000000000000000e+00  -7.7029656497890146e-07 -5.8474930189593909e-08 0.0000000000000000e+00  6.5625205635242667e-01 1.2858495717517762e-08 0.0000000000000000e+00  -1.4178588081485798e-06 1.6251736262805499e-08 0.0000000000000000e+00  1.0864608254436805e+00 -2.7364620737284581e-03 0.0000000000000000e+00  1.6524894380766102e+00 1.5286299804085690e-01 0.0000000000000000e+00  1.2014635773975766e+00 -6.3616199108390353e-04 0.0000000000000000e+00  -4.4549019047003934e-07 -4.9775681340961853e-10 0.0000000000000000e+00  -6.1096193269405597e-06 4.7603913964810717e-08 0.0000000000000000e+00  -3.4263349900875838e-06 -1.8651412546389112e-07 0.0000000000000000e+00  -1.6959317070878492e-06 3.2482109117879989e-09 0.0000000000000000e+00  -1.0945837052942823e-06 4.4439566222930059e-10 0.0000000000000000e+00  8.5109518867563001e-07 3.3729702451740779e-08 0.0000000000000000e+00  -4.3669126768645736e-06 -2.7746846046381495e-07 0.0000000000000000e+00  3.9023802974360069e-06 -3.8740720977991595e-07 0.0000000000000000e+00  5.5945702365178164e-07 -6.3892697320306370e-08 0.0000000000000000e+00  -7.4179630418635103e-08 4.8674137076230527e-08 0.0000000000000000e+00  1.0083114988104929e-06 -9.2004688795245553e-08 0.0000000000000000e+00  -8.3135927502205596e-07 1.4215432850534265e-07 0.0000000000000000e+00  3.8888926786122948e-06 -4.5740084539145718e-07 0.0000000000000000e+00  -3.5303269276187168e-08 -2.9355187389334865e-07 0.0000000000000000e+00  -3.8245682423378607e-06 -2.0766473649650326e-08 0.0000000000000000e+00  -2.9935789477600710e-06 5.4355001796436651e-09 0.0000000000000000e+00  -1.3699657903240403e-06 -1.5828242187151547e-09 0.0000000000000000e+00  -4.1264414328441670e-06 3.6949485841272357e-09 0.0000000000000000e+00  7.0609482620640673e-01 -3.9600975941883658e-02 0.0000000000000000e+00  9.3417480762028726e-01 3.8122154781070186e-02 0.0000000000000000e+00  9.5247093856074516e-01 1.2382565065804761e-02 0.0000000000000000e+00  1.0466653873858689e+00 -1.1851183260797858e-03 0.0000000000000000e+00  1.6707028114983358e+00 -7.3032177868566334e-02 0.0000000000000000e+00  2.6409182604349841e-02 9.6230419815420028e-03 0.0000000000000000e+00  7.7241925736899433e-02 -5.5908526501177391e-02 0.0000000000000000e+00  1.1426248745597785e+00 -1.7180175239138500e-02 0.0000000000000000e+00  1.0766173405499231e+00 -1.0981791414047104e-04 0.0000000000000000e+00  1.1970949720342918e+00 -8.7250505427705523e-03 0.0000000000000000e+00  1.2749955493742196e+00 -5.7085543730170642e-02 0.0000000000000000e+00  9.4807381402298163e-01 3.0792798654760773e-02 0.0000000000000000e+00  1.2035026100525053e+00 -5.9647910150419834e-05 0.0000000000000000e+00  1.2035408657874258e+00 -5.8557959054549795e-05 0.0000000000000000e+00  1.2025083245086223e+00 -6.7738430092080298e-05 0.0000000000000000e+00  1.2033982215660008e+00 -1.9952794831238184e-04 0.0000000000000000e+00  1.0039889229924410e+00 -6.9994521610038575e-06 0.0000000000000000e+00  1.0440011184627158e+00 -1.1947066591542048e-04 0.0000000000000000e+00  8.9281607885832248e-01 -1.3244037202449280e-02 0.0000000000000000e+00  8.8847848944928554e-01 2.1048984578688212e-02 0.0000000000000000e+00  2.4172271665262826e-01 5.4184760445709516e-02 0.0000000000000000e+00  1.2121645736034912e+00 -5.8543827129040521e-02 0.0000000000000000e+00  9.1979951154448336e-01 -3.0314409008818342e-02 0.0000000000000000e+00  1.0934661874390377e+00 -1.0472526678667100e-01 0.0000000000000000e+00  1.5804908231369337e+00 -1.9204901130630184e-01 0.0000000000000000e+00  1.1666080662160496e+00 3.2968934971482266e-03 0.0000000000000000e+00  1.5410716402686755e+00 -2.3262317963938000e-02 0.0000000000000000e+00  1.4880008320176805e+00 3.4246287566963678e-02 0.0000000000000000e+00  1.2040706179414764e+00 -4.3883674182736629e-03 0.0000000000000000e+00  1.4178804105190339e+00 -1.1639904878150603e-01 0.0000000000000000e+00  1.4852030799920042e+00 -1.1382672257144714e-01 0.0000000000000000e+00  1.0960578551567184e+00 -4.9633615127560163e-02 0.0000000000000000e+00  7.9546513321738482e-02 -6.6019944791179258e-02 0.0000000000000000e+00  3.1247517232798266e-01 3.2056026146092799e-02 0.0000000000000000e+00  1.2019099684400401e+00 3.0022582089568695e-06 0.0000000000000000e+00  1.0597666957969141e+00 3.4726686258392432e-03 0.0000000000000000e+00  1.1763749470179945e+00 1.1954574632610241e-02 0.0000000000000000e+00  1.3346659676443062e+00 -1.7255874589353262e-02 0.0000000000000000e+00  7.6948034629041395e-01 1.8987106915413809e-03 0.0000000000000000e+00  1.0238239860371807e+00 -1.1378820709770425e-04 0.0000000000000000e+00  1.2033309981489297e+00 -9.5286039093853310e-04 0.0000000000000000e+00  1.0812712283156636e+00 7.6878221102045313e-02 0.0000000000000000e+00  1.0103980027422941e+00 9.6314904588860455e-05 0.0000000000000000e+00  6.5624908500741752e-01 8.8507555675013329e-08 0.0000000000000000e+00  1.0522848292322640e+00 6.1820191125773825e-02 0.0000000000000000e+00  1.5739046497556484e+00 3.9344429812666157e-02 0.0000000000000000e+00  1.5640664847704471e+00 -3.4254221026385451e-02 0.0000000000000000e+00  1.0485425581762888e+00 1.1146519157077778e-01 0.0000000000000000e+00  1.0722881388813332e+00 7.4455352493696197e-02 0.0000000000000000e+00  8.3874944791009087e-01 6.6818242245924109e-03 0.0000000000000000e+00  7.9433680427649589e-01 1.0054644966918518e-01 0.0000000000000000e+00  1.4335071397735253e+00 -2.4550854154076238e-02 0.0000000000000000e+00  1.6385659223290008e+00 1.5550592368836275e-01 0.0000000000000000e+00  1.2218947457411267e+00 -1.6673895437462609e-02 0.0000000000000000e+00  1.3131504446037716e+00 2.5208118519140569e-02 0.0000000000000000e+00  1.6127894283394117e+00 -1.9106882388959787e-02 0.0000000000000000e+00  1.5105204727619335e+00 -1.4321169005014045e-01 0.0000000000000000e+00  1.2035025298277606e+00 -7.4809767311003026e-04 0.0000000000000000e+00  1.1943230212723250e+00 4.2329399711263966e-05 0.0000000000000000e+00  1.2028552129719527e+00 -1.0510314635021365e-04 0.0000000000000000e+00  9.6936088569991863e-01 -1.5607751162708702e-03 0.0000000000000000e+00  1.5823451372287742e+00 2.0380322519058310e-02 0.0000000000000000e+00  9.4155606605083220e-01 9.3799077555239418e-02 0.0000000000000000e+00  1.2077224360275249e+00 1.4132655042828545e-02 0.0000000000000000e+00  1.2233511734119655e+00 1.6112092665687783e-01 0.0000000000000000e+00  1.0102362349132168e+00 -2.3963537860049958e-03 0.0000000000000000e+00  1.1825702274033920e+00 -1.4671041392739829e-02 0.0000000000000000e+00  1.3630310596401403e+00 9.7961898171868372e-02 0.0000000000000000e+00  1.4884866069027349e+00 5.4015640178276474e-02 0.0000000000000000e+00  1.1976760473685475e+00 -1.1488018742860889e-04 0.0000000000000000e+00  1.2143243359763793e+00 -1.0241329716938705e-02 0.0000000000000000e+00  1.2049631564523953e+00 -1.5080561800062960e-02 0.0000000000000000e+00  1.3123160003355496e+00 -2.3902513799040737e-02 0.0000000000000000e+00  8.4971602116713407e-01 -1.6304625641148346e-04 0.0000000000000000e+00  7.3548639553812023e-01 -2.7666250992662799e-02 0.0000000000000000e+00  7.5707188032298811e-01 -1.9407467076357987e-02 0.0000000000000000e+00  8.8401622726351481e-01 -2.2542038148973022e-02 0.0000000000000000e+00  1.1935479331788177e+00 -1.3097251919660518e-04 0.0000000000000000e+00  8.9754239363643640e-01 -3.7164512500767318e-06 0.0000000000000000e+00  1.2015322061684519e+00 -1.0376257939850345e-03 0.0000000000000000e+00  1.1991354313894849e+00 -1.1216622867946193e-04 0.0000000000000000e+00  7.0358783393465862e-01 -1.8827873392645248e-02 0.0000000000000000e+00  7.9913476240602699e-01 4.9495130544228931e-02 0.0000000000000000e+00  1.2034225856365035e+00 -1.4888636061257115e-04 0.0000000000000000e+00  1.1944918843332184e+00 5.7471846456102343e-04 0.0000000000000000e+00  6.1075581622345954e-01 1.4359315615896118e-02 0.0000000000000000e+00  1.3810947477875331e+00 1.5727268735259398e-02 0.0000000000000000e+00  7.8902033863933507e-01 3.7163323832488651e-03 0.0000000000000000e+00  9.5209226477229336e-01 1.6424112833309885e-03 0.0000000000000000e+00  7.3877407725260702e-01 -7.9133444301404926e-02 0.0000000000000000e+00  1.1969057900003333e+00 -3.9839092412364142e-02 0.0000000000000000e+00  8.4163461155710773e-01 -1.9297252186001613e-04 0.0000000000000000e+00  1.5382019442423107e+00 -9.2425865797550605e-03 0.0000000000000000e+00  1.5286027303490859e+00 4.7682011962678506e-01 0.0000000000000000e+00  1.0051303244934433e+00 1.8260504991781895e-01 0.0000000000000000e+00  9.1530927968131681e-01 1.5734358663888572e-04 0.0000000000000000e+00  1.3199630167327578e+00 -1.2690118926324623e-01 0.0000000000000000e+00  1.4483679952703314e+00 -5.4625994841407344e-01 0.0000000000000000e+00  8.8465487092341655e-01 9.3540133091441786e-03 0.0000000000000000e+00  9.3890663543068109e-01 1.1921165055016651e-04 0.0000000000000000e+00  1.5010079588843290e+00 -1.0364509730216447e-02 0.0000000000000000e+00  3.5000121045076926e-01 3.4798049591542798e-02 0.0000000000000000e+00  1.4062541084929410e+00 1.6398932542811032e-07 0.0000000000000000e+00  1.2028472334769360e+00 -1.2305743351766028e-05 0.0000000000000000e+00  9.1553765490231043e-01 -2.6364552878519018e-04 0.0000000000000000e+00  1.4062506553623475e+00 9.1032773676973337e-08 0.0000000000000000e+00  9.1522003252046047e-01 2.6376689075992893e-05 0.0000000000000000e+00  1.8366415347882332e+00 -3.3187983582419234e-01 0.0000000000000000e+00  1.2397854894595315e+00 -4.5337991586221118e-03 0.0000000000000000e+00  7.1463547033678299e-01 9.8762693000877005e-02 0.0000000000000000e+00  1.2033624041067053e+00 -1.4401102724296383e-05 0.0000000000000000e+00  8.1626754760302678e-01 -3.3178604771248156e-02 0.0000000000000000e+00  7.1780254518427278e-01 -1.1261439557647062e-02 0.0000000000000000e+00  1.2551858144800541e+00 -1.8536875563442846e-02 0.0000000000000000e+00  5.6486781690309795e-01 -3.1533416551086679e-03 0.0000000000000000e+00  8.5007231791208560e-01 1.0084541716112194e-03 0.0000000000000000e+00  1.3207620079468922e