<?xml version="1.0"?>
<VTKFile type="UnstructuredGrid"  version="0.1"  >
<UnstructuredGrid>
<Piece  NumberOfPoints="2362" NumberOfCells="4391">
<Points>
<DataArray  type="Float64"  NumberOfComponents="3"  format="ascii">0 0.41 0  0 0 0  2.2 0 0  2.2 0.41 0  0.2404508497187474 0.2293892626146237 0  0.25 0.2 0  0.2404508497187474 0.1706107373853764 0  0.2154508497187474 0.1524471741852423 0  0.1845491502812526 0.1524471741852423 0  0.1595491502812526 0.1706107373853764 0  0.15 0.2 0  0.1595491502812526 0.2293892626146237 0  0.1845491502812527 0.2475528258147577 0  0.2154508497187474 0.2475528258147577 0  0.5951056516295153 0.2309016994374948 0  0.6 0.2 0  0.5951056516295153 0.1690983005625052 0  0.5809016994374947 0.1412214747707527 0  0.5587785252292473 0.1190983005625053 0  0.5309016994374948 0.1048943483704846 0  0.5 0.1 0  0.4690983005625052 0.1048943483704847 0  0.4412214747707527 0.1190983005625053 0  0.4190983005625052 0.1412214747707527 0  0.4048943483704846 0.1690983005625053 0  0.4 0.2 0  0.4048943483704847 0.2309016994374948 0  0.4190983005625052 0.2587785252292473 0  0.4412214747707527 0.2809016994374948 0  0.4690983005625053 0.2951056516295154 0  0.5 0.3 0  0.5309016994374948 0.2951056516295154 0  0.5587785252292473 0.2809016994374948 0  0.5809016994374947 0.2587785252292473 0  1.1 0 0  0 0.205 0  1.1 0.41 0  0.55 0 0  0.55 0.41 0  0.275 0 0  0.275 0.41 0  0.4125 0 0  0.4125 0.41 0  1.65 0.41 0  1.65 0 0  1.375 0 0  1.375 0.41 0  1.925 0 0  1.925 0.41 0  0.8250000000000001 0 0  0.8250000000000001 0.41 0  1.5125 0.205 0  1.7875 0.205 0  0.9625000000000001 0.205 0  1.2375 0.205 0  2.2 0.205 0  1.99375 0.2152743902439024 0  0.7815916808149406 0.1777281409168082 0  2.0625 0 0  0.6875 0.41 0  2.0625 0.41 0  2.2 0.3075 0  0.6875 0 0  1.7875 0.41 0  1.375 0.1486128048780488 0  1.5125 0 0  1.7875 0 0  1.5125 0.41 0  0.9625000000000001 0 0  0.9625000000000001 0.41 0  0.1375 0 0  0.1375 0.41 0  1.2375 0 0  1.1 0.1486128048780488 0  1.2375 0.41 0  1.65 0.1486128048780487 0  1.676715909090909 0.2793064024390244 0  1.126715909090909 0.2793064024390244 0  1.348284090909091 0.2793064024390244 0  0.7111837382351637 0.2844002487563727 0  1.894702181800738 0.1282910975492754 0  2.092797818199262 0.1282910975492754 0  1.85625 0.3075 0  0.89375 0.3075 0  0.89375 0.1025 0  0 0.3075 0  0 0.1025 0  2.099172119769978 0.25625 0  1.002356446954348 0.1010393851523063 0  1.99375 0.08395950269330846 0  1.459960956013612 0.3075 0  1.569025960719943 0.2986889805672169 0  1.03125 0.3278689922742084 0  0.3192727088781826 0.3079212096616675 0  1.959375 0.3126371951219512 0  1.749222215368287 0.1025 0  1.275777784631713 0.1025 0  2.2 0.1025 0  1.225938124459196 0.3075 0  1.550777784631713 0.1025 0  1.44375 0.07430640243902442 0  1.16875 0.07430640243902439 0  0.3437500000000001 0.07397709473011121 0  0.6911993143367559 0.1118123074367635 0  0.8057215702682121 0.2702269632945269 0  1.899250267340833 0.2229966846119207 0  0.8720458404074704 0.1913640704584042 0  0.8032958404074703 0.0888640704584041 0  0.6337831477789919 0.3348380330536306 0  0.1020898364287272 0.3140258291809757 0  1.766482954545455 0.2934032012195123 0  1.051658316544432 0.2265720188842194 0  0.2 0.3400647632937836 0  1.421109702350723 0.2261157654379721 0  0.61875 0 0  0.6878950265164463 0.199645915719726 0  0.098916018031319 0.09171660955420841 0  2.13125 0 0  2.118919042110979 0.3422084711244843 0  1.30625 0.41 0  0.20625 0 0  1.597888256393107 0.2173787389261347 0  0.7562500000000001 0.41 0  1.829299675393195 0.07400700849299596 0  1.71875 0.41 0  0.3225835293916391 0.1601701968669111 0  0.2606666398188512 0.0822552582932282 0  1.16875 0.41 0  2.038220665644273 0.332420740103091 0  0.176193934632343 0.0734896648625108 0  0.07390688010811153 0.1697064032433452 0  0.05452951551825875 0.25625 0  1.452769549894695 0.1548122580621249 0  1.369219062229598 0.07430640243902442 0  1.30625 0 0  1.075792183788687 0.07430640243902439 0  1.720943423819132 0.1714577452753128 0  1.157188124459196 0.205 0  1.304056576180868 0.1714577452753128 0  1.67579304192913 0.07430640243902437 0  0.7671326277666176 0.3352102652308781 0  0.3304630541488595 0.2342593631089261 0  1.209670467133757 0.136210026696477 0  0.7562500000000001 0 0  1.58125 0 0  0.9945036230615469 0.267761374151655 0  0.4812500000000001 0.41 0  0.06875000000000001 0.41 0  0 0.35875 0  0.9595378427479357 0.3376804103519943 0  0.34375 0.41 0  0.3897250743675729 0.3371889980614159 0  1.58125 0.41 0  1.631724228912893 0.3381867502687533 0  1.825608881788174 0.14499488549201 0  1.85625 0 0  1.44375 0 0  1.44375 0.41 0  1.85625 0.41 0  2.13125 0.41 0  0.89375 0 0  0.89375 0.41 0  0.20625 0.41 0  0.34375 0 0  0.4812500000000001 0 0  0.06875000000000001 0 0  0.61875 0.41 0  1.16875 0 0  1.03125 0.41 0  1.03125 0 0  1.71875 0 0  1.99375 0 0  1.99375 0.41 0  1.340625 0.3489494290853124 0  1.134375 0.3489494290853123 0  1.700180620188976 0.3438659752031281 0  1.033412357328477 0.1612902025713048 0  2.135782184673599 0.07126652247502523 0  1.668441847249787 0.2129203728327609 0  1.295782514339747 0.2378437748815763 0  0.6228574598132852 0.07671664390624158 0  1.409375 0.3520314716057996 0  2.129248544730567 0.1906135162504124 0  2.060771381434487 0.1989445750470348 0  2.013252586573865 0.1496169464686054 0  1.942766402200229 0.1734448904596831 0  1.895522487186454 0.06076163953489683 0  2.069553871656643 0.06605731020975725 0  1.274680914880868 0.3520219391081363 0  0.835055311278239 0.3424380136622334 0  0.7401021045332367 0.06543430142341211 0  1.614713220494657 0.09473434380863296 0  0.7520823699979313 0.2348229030472582 0  0.7043417970120415 0.3481429366232311 0  0.6546643048326494 0.2543538116156937 0  1.72990325744076 0.2380068107952482 0  1.356580098625191 0.2120393231351682 0  2.034370752044885 0.2668681600792073 0  1.51768709249349 0.3426260931494756 0  1.561883724969884 0.1650446847858835 0  0.2653439943239876 0.345171903972789 0  0.8330496081674507 0.1432136774486613 0  0.9281250000000001 0.05125000000000001 0  0.9330537010450736 0.2595558360668175 0  1.197344062229598 0.2523725417393646 0  1.804085235518364 0.3468178408964637 0  1.817887819205233 0.2589243285818559 0  1.905897727272727 0.3485060975609756 0  0.9485678863664097 0.1400383079249692 0  0.859375 0.05125 0  0 0.05125 0  0.4074403514301243 0.06423252630440013 0  0.5245798370136819 0.3551909831755992 0  0.7505241288352321 0.1253952068674773 0  0.2619923711861096 0.2853251789076993 0  0.8650169191207625 0.2527737409589524 0  1.192836486056382 0.3562350748565544 0  0.446875 0.3592802242693868 0  1.28257088594801 0.2944411014911587 0  1.474860187679412 0.2504218616229368 0  1.406767003493824 0.2829282258560709 0  1.845656689180403 0.1998310418452388 0  2.144958525570388 0.2909790873294231 0  2.2 0.15375 0  0.5843750000000001 0.3640402812892887 0  1.57794966442982 0.3540357145964566 0  0.6847665055715617 0.05605778745887328 0  0.637863756942103 0.1315837975700875 0  0.515625 0.04531250000000001 0  0.5718106469538725 0.0522410511374206 0  0.0496154796471391 0.333125 0  0.3662446794185922 0.2773760459259736 0  1.508991196088596 0.1421783375065625 0  0.09776612425612034 0.2204896805326566 0  1.50436820029908 0.06143401634903343 0  1.223857000523521 0.08235548624535324 0  1.153316824384777 0.1289850171317838 0  2.148922302309752 0.1258841779285271 0  1.621993280276081 0.2841214267927899 0  1.550118654119087 0.2461998729100966 0  1.327182649291491 0.1216967252533594 0  1.753125 0.04556020050186112 0  1.271875 0.04556020050186116 0  0.9824282234771738 0.05051969257615315 0  1.94956388244759 0.1180512551534177 0  1.949997712993411 0.04965831614304109 0  1.771961817615021 0.1530278789497521 0  1.909246823951428 0.2812757146784527 0  1.106872424375684 0.2277674570637181 0  1.948575539857022 0.2445328248721197 0  1.697271520964565 0.1233917627620729 0  1.065625 0.3689344961371042 0  1.085849084308977 0.3170853572226867 0  1.577403511714593 0.05463601888079143 0  0.05622663515370135 0.05493816910862376 0  1.751571320346033 0.3651102912045228 0  0.1583785085108421 0.2994699345738728 0  0.1455283439499995 0.3542795598723423 0  2.2 0.35875 0  0.4605652621775715 0.05075477778725031 0  0.1455852234589313 0.1166494778469164 0  0.3170871189130322 0.3624193665482365 0  1.466879772203159 0.3611261772912453 0  1.045297740100467 0.2779948725912803 0  1.990280163552011 0.3564754268533217 0  1.17471064520912 0.2990917256188288 0  0.8219886595034398 0.2165866596606327 0  0 0.25625 0  2.2 0.25625 0  2.2 0.05125 0  0 0.15375 0  1.853978576207987 0.35875 0  0.884510791938353 0.35875 0  1.000341183849677 0.3689344961371042 0  1.515638456102889 0.2882700110184686 0  0.09048297387599738 0.3637717362208066 0  2.150453692751374 0.2387066338105111 0  1.323782677156475 0.04897634338873398 0  1.409375 0.03715320121951221 0  1.406484531114799 0.1087852750766809 0  1.134375 0.03715320121951219 0  1.627401732573545 0.04552157221025036 0  0.2990651506063402 0.04656992046979862 0  0.3658138865510369 0.1250908110711949 0  2.045405893604797 0.1105340662939892 0  1.255408269734577 0.1577307500159216 0  0.7848198562432198 0.04176011905165711 0  2.028125 0.03707597992059326 0  0.04420832937638274 0.128125 0  0.1197849154434487 0.2663398672460083 0  0.2773440361767429 0.1325614896367195 0  1.248258025468107 0.2565907092181813 0  0.1300647302703173 0.0508462728378621 0  1.203125 0.03661323374043041 0  0.221416587416242 0.04909393590284095 0  2.072662025974815 0.2975086504196739 0  0.7309361959118756 0.1724117473133809 0  1.049057507569546 0.1150968098952652 0  1.029426696124534 0.0611707995214115 0  0.7592092911094858 0.2823604815974596 0  1.113520643506534 0.1031115419092917 0  1.887722846421017 0.1760882698830035 0  0.7976278545651526 0.3713969152554929 0  0.8476376957455005 0.2968044376629371 0  1.472640588990488 0.1118278026240017 0  1.865937103925594 0.2604137786483804 0  1.463913572748262 0.2030442564990043 0  0.2154602920799496 0.2951006307678045 0  1.376426316059077 0.3186741374914345 0  0.928125000000
[...]
<PointData  Scalars="f_43"> 
<DataArray  type="Float64"  Name="f_43"  format="ascii">6.5028243527637541e-01  6.5139290581951925e-01  -2.1057761558682440e-09  4.5482875913845378e-11  -7.8470089692207701e-02  2.1058046461556704e-01  -8.9197685771086593e-03  -4.5945751433179199e-01  -6.9156991202213902e-01  9.9954815011023235e-01  2.1998492765250193e+00  6.2779653091636622e-01  -8.9722197178557328e-01  -4.4451469480066402e-01  -2.4543669540289875e-01  -6.4396079344094387e-02  -1.0431422365782138e-01  -3.4214220597651690e-01  -2.7819727214944856e-01  5.1657476431632388e-01  -2.2582696072375232e+00  -5.3005388306703374e+00  -1.5349110227636269e+00  7.1387320156718087e-02  9.4121695447965625e-01  9.3059784814839330e-01  1.0248398178592786e+00  4.4441160121573997e-01  -5.2904600815672376e-01  -2.0588386867556081e+00  -1.7464261612415131e+00  -1.0713654024972679e+00  -9.0981110907078266e-01  -5.0781254870323689e-01  1.0461041735135268e-01  9.5583638399169335e-01  1.0046850582093793e-01  -4.5092027512658800e-01  -4.5200112898764755e-01  2.8106515904836149e-01  3.9493571901049657e-01  -3.3624362473004293e-01  -3.2691400949514421e-02  5.0386809872793384e-02  5.2483740571760418e-02  7.6929224857242018e-02  7.7029424769115992e-02  2.4763891292353638e-02  2.6300465637682138e-02  1.1983091463396366e-01  1.0383543459887307e-01  6.4197774835977106e-02  3.8626051921696290e-02  1.1728736122291092e-01  8.9707484401551796e-02  4.3874648689077866e-10  1.9358928602335342e-02  1.6084797874310469e-01  1.1733229552589534e-02  -2.9727328221567983e-02  1.5851457408711595e-02  2.6751381857587385e-10  3.1616228665383037e-02  3.9809688957972003e-02  7.6990288544507221e-02  6.3417749235591417e-02  3.9323288400587415e-02  6.4124331876101337e-02  1.1523689601634458e-01  1.1000667245312463e-01  7.1703009562532505e-01  7.2066639468996541e-01  8.9858900554648735e-02  1.0313394372545109e-01  8.9135753397053777e-02  5.1415789159096316e-02  4.8916434892593591e-02  9.9555760619864944e-02  7.9335354861580540e-02  1.3254846067778606e-01  2.8628100463429309e-02  1.0094272190037805e-02  3.2122476699254908e-02  1.1847600696847559e-01  1.2478548148760527e-01  7.3339615621135656e-01  7.4165501249186305e-01  9.5327737014695175e-03  1.1314164524690640e-01  1.9364202545601793e-02  6.9064110608362678e-02  5.8922280830197002e-02  1.0723383964872847e-01  4.5928795322590443e-01  2.2581371247695662e-02  4.2220643736532969e-02  8.6269283550004600e-02  -6.3679882388083140e-10  9.0377604714209817e-02  6.0661965959509997e-02  7.0575439858930375e-02  9.6712716285589861e-02  2.0018909462425216e-01  1.4443599707245422e-01  1.3659508626291544e-01  2.8175349263525835e-02  1.3170900823766518e-01  1.3178695503288243e-01  -1.5120306043593043e-01  6.4807360732925490e-01  4.0577016258982662e-02  1.0722244196882068e-01  5.0467460459442581e-01  7.2645878206266376e-02  -1.8926589387475071e-01  2.2491475013365614e-01  6.4738002070831957e-01  6.3959985951647629e-03  7.9213795772211139e-03  8.3330174994368428e-02  5.2524292220346247e-01  5.6251840362405270e-02  7.2774092668434598e-02  3.4822176427902488e-02  4.4452013511186987e-02  6.3750212329095612e-01  2.3740186577941672e-01  9.4908872481181600e-02  1.5277468275624042e-02  5.1263460564855323e-01  1.0778966388278413e+00  9.1838567370904767e-01  6.9764500982419694e-02  7.7640413269539132e-02  8.3285646105128452e-02  1.0580812327551828e-01  4.4807423072760082e-02  9.7258199471392207e-02  8.3562174507008161e-02  4.8977277851166338e-02  1.0494625435495268e-01  7.0934011299526378e-01  9.2563089780471591e-02  1.0235007804397109e-01  5.8523769802544513e-02  1.1202145211508263e-01  -3.9739239807593241e-01  6.4650999421268807e-01  6.6264012775216818e-01  1.1224456993524774e-01  2.3949777282044793e-01  1.6634696295652834e-01  5.9075411596304465e-02  5.3169061763315983e-02  3.5090981596076078e-02  3.1823918867324885e-02  7.0082851407364519e-02  7.0412290327370730e-02  3.1142774053536625e-02  7.3465624027181610e-03  1.2076336623947617e-01  1.1175500818334957e-01  5.7372733646419805e-01  6.1177861406955490e-02  -6.4317807986012987e-01  6.5415804402367106e-01  -2.5058122017316459e-01  9.7654369649783579e-02  1.0636059707931270e-01  1.1073268915484039e-01  4.6058661097416895e-02  1.9016328131270882e-02  1.6994300711373193e-02  7.9836779338473482e-02  9.8360209684900904e-02  4.6680936063825396e-02  1.0981411922261193e-01  6.1026913026178409e-03  4.9692599320201897e-02  8.4218607325315956e-02  -1.4582743340189888e-01  7.3884604237360429e-02  6.6732356877879885e-03  1.3102410202984091e-02  1.7523348516103914e-02  2.4122326577790586e-02  2.8526411816047221e-02  1.2332562713289110e-02  8.5810759880015700e-02  1.1358041650241883e-01  1.1470350967581415e-01  5.4757447690017030e-02  1.6977063125538122e-01  4.7336267230947922e-02  5.5904355831043161e-02  4.3977014997378432e-02  7.8638456550103028e-02  1.5595166631669403e-02  6.3618367720137070e-02  5.9619539958949010e-02  3.8002056935660272e-01  1.3845715752436133e-01  1.1973543357195758e-01  1.1869752651108470e-01  9.3221441131396438e-02  3.7038217352341689e-02  3.5753658456737156e-02  2.7523604507353812e-02  1.1935703871748637e-01  1.2367571312826066e-01  6.6503302891047666e-01  -3.5187174183458786e-01  -5.9637448900343593e-01  1.5537090578846008e-01  1.6832083667150102e-01  1.2880143433572877e-01  9.3188074916638330e-02  -3.3294047958090306e-01  8.5272230160374357e-02  6.7682172214486094e-02  7.3975498619189201e-02  3.3192088016728523e-02  5.2771894943311227e-03  4.3874648689077866e-10  -3.7525510181757982e-01  5.8246227398357567e-02  6.2310921145560347e-02  -6.7385536882417857e-02  -6.6515963014974588e-01  -3.5516530808426444e-01  6.6984965477197800e-01  6.4317939527107171e-01  6.4530624141279316e-02  1.3102940306315862e+00  6.4803005653706974e-02  9.1315094398375388e-02  9.8029432115583973e-02  4.8189969575744614e-03  5.4006907417467609e-02  6.0687464254126224e-02  8.1450689143935301e-02  4.1850800447313027e-02  8.6459795668183778e-02  1.1449998482658248e-01  2.3492361170638021e-02  2.3451267396594509e-02  4.0077561669220309e-02  2.7231240787286542e-02  1.0187901532323425e-01  2.3579424108632816e-02  4.7027208505643944e-02  1.0417724676154597e-01  1.0279253251401901e-01  5.8132305247264725e-02  6.3775235217206316e-01  4.2187877847070301e-02  4.4886793913363021e-01  6.5194681586585945e-01  -1.5352312397094251e-10  -9.2584534202738833e-01  4.9147067496006347e-01  3.3181616673081671e-01  6.8320693561644302e-02  1.0700667836192709e-01  1.9440231857018278e-02  9.5059658348834550e-02  1.4385104669114340e-01  8.7177305343149702e-01  2.6751381857587385e-10  -7.8378249065025917e-10  8.8241936113617525e-01  3.2311794102074895e-02  1.1357879696321441e-01  1.0896239039738942e-01  6.3891510332236015e-02  6.0132829072007532e-01  4.6912643422488583e-03  8.1770809383238025e-02  7.4275837866197597e-02  7.4108982192375814e-02  9.9953147562758388e-02  5.3654237730554423e-02  2.2708843484618621e-01  4.8951422627913632e-01  1.4534560607124112e-02  8.8154228620997074e-02  1.1636232038424373e-01  1.6033565585498125e-02  8.2123793163141701e-01  8.6071338066276737e-01  1.0855018669658602e-01  8.8538724855706005e-02  6.4304058633546790e-01  9.3526284394076092e-02  4.1195535200675615e-01  1.2071806942241192e-02  1.9095353145338592e-01  1.0838637280720252e-01  1.1034308143392850e-01  1.3813461126027060e-01  1.0202450542582471e-01  2.9276213026599985e-02  9.9760075798816183e-02  1.2354026900620060e-01  6.7897620427140190e-02  3.1268905931610726e-02  6.8707866066280529e-02  1.7703747693631261e-01  7.6746886769284831e-02  1.1050892051572928e-01  -4.7064094894845876e-01  -7.0697503382435078e-02  3.6250634556931512e-02  1.2336992308331586e-01  1.1186364429196526e-01  1.0480883195604426e-01  1.2491209299993365e-01  1.2812122750682381e-01  1.2915004425595411e-01  1.1970683008392205e-01  4.4692811854466025e-02  -9.9639070609708558e-02  3.9865617516364443e-02  9.5073941767571321e-03  7.5056321271790044e-02  1.3152955268045413e-01  1.6663008228499684e-02  5.5806277276146704e-02  1.0694888918703005e+00  3.6281576933886853e-02  4.0402457362995692e-01  1.0301617801246310e+00  1.9671441341183281e-02  3.7593968742144095e-03  1.0677613836937922e-02  1.2131131481097172e-02  1.9368759693494017e-01  1.1510026790235590e-01  1.8490132124675465e-01  2.0740538646068543e-01  1.4749526170248600e-01  5.4074470264899831e-02  4.8525668172100578e-01  3.8115194791093154e-02  -6.4052677789648349e-01  7.9079787172384552e-01  1.8193450159170545e-02  7.6188296690548274e-02  4.5995669221794572e-01  1.0612923763951099e-01  -7.4728716433750245e-02  9.3561744204811198e-02  6.6659748162067600e-02  5.3142429864043002e-02  5.9675989335834304e-02  1.2492574953996327e-01  2.1789760951545167e-01  4.6518709521315954e-02  4.6325892587874513e-02  3.1773993096851864e-03  4.6280456802239300e-03  6.4040780950064780e-01  5.2826197823585705e-02  3.8034869410276874e-02  3.1179295526797983e-02  5.9877000323781807e-02  2.4098928164409304e-02  1.4745602141994565e-01  7.8533815447770772e-02  3.4842668762931697e-02  4.3413881864594224e-02  6.4340178733242248e-01  5.0261633456913805e-02  3.2854444517161285e-01  1.1569420349235822e-01  6.6631778574344458e-01  1.3480545932662522e-02  6.0372488678826872e-02  8.9495667704041326e-02  9.9674449196794791e-03  6.7917185468779881e-02  -4.7628581200341191e-02  1.0342622602835465e-01  5.7006671539176379e-02  3.1815706275934941e-02  6.9402532502407882e-02  -1.3358220400920605e-02  9.8241668007389607e-02  9.9365417055886113e-02  3.6899538694337717e-03  7.0010890628753641e-01  8.1758696680906975e-02  -8.8004114031651348e-01  1.9977832830884151e-02  2.8320231451412149e-02  1.1222951971172036e-01  3.2160054663183099e-02  2.8442088423571731e-02  2.5455389469875318e-02  6.4345513904554841e-02  4.5605296121904081e-02  4.9906465638430042e-02  5.1143897362495951e-02  6.4010015966480749e-01  -2.7081466219250483e-01  1.0992569007063566e-01  6.4488832849319566e-01  1.5477208047040161e-02  1.1084708734037690e-01  1.0428446256333802e-01  7.3339520385734630e-02  1.2072389180338797e-01  -1.3692057777104444e-01  3.1451887434611342e-01  1.4558964899555275e-02  7.5604389382131076e-01  -3.0184957956825376e-01  4.7358408194153025e-02  8.6260852618674078e-01  -2.0644400441620300e-01  3.9539765487189377e-02  3.0749983938214676e-01  3.5621523339368194e-01  3.9126210895834616e-02  6.6341670261889807e-02  -5.0193393769632855e-01  9.4516783882649269e-01  1.1138091765947628e-01  1.5756226242401094e-02  7.0552868040227479e-02  6.2959994472936709e-01  6.4165748540619252e-02  1.2188636267002753e-01  8.0186638772534824e-01  6.2764895144986899e-02  4.2345545685728771e-02  8.5960985018361358e-02  4.3764661764743827e-02  8.4663070609207192e-02  7.7563105743383098e-02  7.8231900920970820e-02  4.8093443039357815e-02  8.0369271426843941e-02  8.3995621864371717e-01  2.1216272471715529e-02  -1.0377346052910619e-01  8.9282735627589788e-02  9.4298736746441542e-02  1.4047093647833631e-01  7.0387186900172172e-01  5.5881267486888833e-02  4.9732867656533696e-02  5.8979483428432722e-01  -4.1091659574724038e-01  -1.1604807018266072e+00  -2.2397219686686032e-01  6.8809998388629190e-01  5.7507040936596632e-01  5.3638354721122342e-02  5.6491617476662835e-02  6.1944088918931606e-02  1.9906527966545265e-01  3.6646005031891526e-02  1.2906531186599212e-02  1.6249485329374327e-02  8.2943846456895329e-02  8.7068883030700442e-03  1.1746043246442929e-01  1.1109480886266382e-01  1.5869999089948447e-01  7.8225513701760431e-03  3.4652634482700241e-03  4.0080553348759859e-02  6.1287886645027191e-02  1.0842020806426923e-01  7.3998248865197208e-02  -4.5749942080395678e-01  1.0153225852032471e-01  3.3301061655909426e-03  7.5515222313928361e-03  2.2803589345753016e-02  8.6591336317704028e-03  9.2840571955670845e-02  3.2039242684656286e-02  3.7261470330310478e-02  1.0871868372340093e-01  3.1973394314998765e-01  1.1374493014094547e-01  1.0953331836113754e-01  2.9884552654335345e-01  2.7597788572686971e-01  1.5485928507434152e+00  1.1332919738708273e-01  7.6384871834330492e-01  9.6123525571925023e-02  9.7516256871045481e-02  8.2998493819880767e-02  7.9562097550580149e-02  7.7272294147414766e-02  9.7982944361118637e-02  7.1680819545258942e-02  -5.4239598722660176e-01  -5.0219342655735688e-01  7.3798274800446961e-03  9.1718915877280136e-02  3.2414817104029325e-02  8.9774139919552298e-02  1.1197444057004294e-01  1.0023188526813598e-01  7.3592543987271580e-02  4.8683743183281308e-02  1.9407126372745196e-02  1.6060883592830779e-02  2.2486111362501407e-02  8.5533895661688494e-02  9.9303244190143095e-02  9.6897775123759619e-02  7.9804120715023283e-02  2.4287700747341067e-03  1.1667885765935802e-02  9.9114265686194802e-02  7.4913922729398008e-02  6.8266988139451798e-02  4.3150203929426270e-02  1.0376669496311093e-01  4.0407966760659525e-02  1.2271525720788884e-01  1.1979124538991429e-01  7.4323457368347390e-02  2.2379141444152885e-03  -2.3513968269971575e-01  3.8737026024143056e-01  7.0294310637785185e-01  4.7593613410562619e-01  -3.2157828217066503e-01  -1.3018487652689242e-01  9.0624403304203058e-02  1.1320647336050181e-01  1.7983880012568554e-01  3.2125869762620812e-01  -5.8230745201293643e-01  -5.9959930503252198e-02  -3.6262797535817354e-01  1.2257131678671228e-01  9.3876916028265853e-02  5.3985225765688732e-02  1.0948778446973013e-01  2.4611876567200666e-02  8.6495581029465113e-02  1.5754680164809503e-02  2.2778450845363146e-02  4.5051404028424849e-02  1.7783512287927399e-02  1.7842584823183616e-01  1.2279622917176249e-01  7.1062239792940768e-02  9.6203624394667661e-02  1.1731857222025112e-01  -1.8388816801888985e-01  9.3869745360534343e-02  1.1483977255790861e-01  1.1472485738768591e-01  1.0664461388437074e-01  1.0822916061554742e-01  1.1146325788087216e-01  8.0676557799527482e-02  8.2627917997759245e-02  5.3605623615409359e-01  9.5425340931033248e-02  6.1747631921243815e-02  6.5874568857490337e-02  1.1533041031560341e-01  2.7341823695048610e-02  1.7434342027891550e-01  1.3524499448933575e-01  1.5389720477628993e-01  4.8735586501896583e-01  1.2592855755284960e-01  7.0865723451729562e-02  7.2337576287716726e-02  4.6627380956926617e-02  2.8758061675504022e-02  6.3785374567842654e-02  1.0046116553117738e-01  4.6157069932325157e-02  3.4819279867205129e-02  4.9707011419811584e-02  8.2633894414365763e-02  2.5697710272026161e-02  6.6051879495336252e-02  9.3062008647502725e-01  5.6310791773461509e-02  1.2325854784652285e-01  1.3060435610154741e-02  1.0633439826682250e-02  1.1896021061119620e-01  7.8018889937685312e-02  9.9483131957938631e-01  8.8465561101146103e-02  2.5838918092651483e-02  2.6779448789837308e-02  6.9434241635238492e-01  1.0906759974671018e-02  1.5106503214360674e-02  3.6982141656417541e-02  1.0500061973104546e-01  3.7303433696481336e-01  3.7688236932445307e-01  1.2100417627725892e-01  3.4175668969134425e-02  4.6974110911949016e-02  3.3449511136758946e-02  1.0662194640285846e-01  2.2423506285592209e-02  -3.8332202802846382e-01  3.0374843190049345e-03  1.3083596292323768e-01  6.7836771495109893e-01  5.8893236067984439e-02  5.7787071579408315e-02  5.2161864428381707e-02  2.7402028310725583e-02  1.4359981619688279e-02  1.4980089103625766e-01  1.6684216448372144e-01  1.4074449788407542e-01  6.0191517140748041e-01  5.9525091790309625e-02  1.2615524633314754e-01  1.9005814135798380e-01  1.2006111253298941e-01  9.6762928842602014e-02  1.1645784991034222e-01  5.7187347064940587e-02  7.3810966363385933e-01  6.2289249578847523e-02  8.0009316343304729e-02  -1.5735012719614703e+00  3.0191606539419838e-02  1.1752010485304201e-01  2.4393387979684902e-02  1.2627320077298534e-01  9.0656755999491787e-02  5.9042002181672493e-02  3.6404417942475516e-02  9.2904242528644682e-02  1.3241105983116619e+00  4.2378790744885292e-02  1.5341141220674613e-02  8.7602636362501693e-02  9.0951782805209089e-02  9.5392678293957534e-02  1.0931386187014018e-01  5.0241393863705221e-02  6.7822456817537194e-02  1.3740840975840965e-01  1.4764367835859024e-01  9.1014512354081825e-02  3.8031107221224277e-02  3.4023213118796573e-02  1.0057192991780735e-02  6.5531253965926753e-02  1.2318201149566450e-01  1.3114929302058881e-01  1.3060479571986972e-01  2.0708251918895058e-02  1.1830833680749529e-01  6.5396802188003977e-01  6.4730120835219218e-01  6.1614219106847078e-02  2.8228611030472379e-02  8.4347802856263157e-02  3.7519251429204287e-01  7.9443877671125407e-01  -5.3160232299543808e-01  1.3394034841740207e-01  6.0714255628672262e-02  -1.3689413474343334e-01  -8.9571450170558203e-02  -3.6406538553724528e-03  2.7834584522268463e-01  2.0613267803842338e-02  1.1603653770145107e-01  7.9392164978906138e-02  1.6367131679356936e-01  8.8086537558906372e-02  3.3851462117118619e-02  -4.7467454151520949e-01  -8.3537058343650139e-01  6.2115268994848938e-01  9.4456956356521360e-01  9.4909179644830956e-03  3.5071550467231094e-02  9.0825770716357127e-02  5.3354726092854965e-02  3.0055749095952950e-02  -1.8736472633250800e-01  6.5877549340973862e-10  6.7447678977606984e-01  9.8481279149296316e-02  5.1575303406175763e-02  3.2771190968568713e-03  1.4619173085584780e-01  1.2812007266210774e-02  5.8472403896908876e-01  5.5674191117189187e-01  2.8476313684906045e-02  1.1016033759754447e-01  7.5321442142856618e-02  6.9864089151619471e-02  6.7857322906817161e-02  6.5923968203547401e-02  7.0908837008462858e-02  3.0741839461637280e-02  1.0378700445775581e-01  1.0888371006879929e-01  -2.4777656403034340e-01  -3.0377521493244037e-02  7.6615826063333406e-02  7.2812053252947193e-02  3.0376171684871674e-02  7.1932085304625661e-11  4.1634796864995716e-01  1.3886473643463493e-01  5.7393558178547421e-01  8.8133492741034089e-02  8.5744832515466246e-02  8.5391259290082192e-02  4.2363428787677121e-01  4.4090938528998321e-02  1.0023183344048013e-01  -2.4503985171085374e-01  1.7370672879912990e-02  1.7028716159595211e-01  6.7158921663357088e-02  5.2390872978550600e-02  7.0185565533767602e-01  4.0514760351481285e-02  -3.7011209536925926e-01  6.1272649509736083e-03  6.6339992699610559e-03  2.8167475324576145e-03  1.1027394375746036e-01  -4.5230201620275778e-01  -4.9202968134606634e-01  3.0699422282498140e-02  1.9914768974088580e-02  1.0306454407360710e-01  -4.8533185261363226e-03  8.3493856184575874e-02  1.1192809710666630e-01  -3.4455772434108684e-01  8.4254682505735312e-02  4.4188791910392752e-02  3.9534669908106168e-02  3.8472171057579768e-01  1.1320206633573586e-01  5.6782201086146254e-02  -8.3000625866133063e-02  1.2462839223852061e-01  -6.6147866161734248e-01  9.5267716931221921e-02  1.0046793289429111e-01  8.0425551699820935e-02  9.1059606212757313e-02  8.5760956765043680e-02  8.5239482531068292e-02  1.0439367525355112e-01  6.9318603238667720e-01  1.3575325631783430e-01  1.1910614134356165e-01  1.0182347029638671e-01  9.0015674656536676e-02  4.3874648689077866e-10  1.2615749950773436e+00  1.0693906184140183e+00  4.9207482698266236e-01  5.8302629762465398e-02  5.5558660692976970e-02  1.5015493268035221e-01  1.3680323024089808e-01  6.1763326537177798e-01  2.6229561740776647e-02  7.2930658124371894e-01  6.8726774322335071e-01  6.6729446536196335e-01  2.4305123189015617e-02  1.0421617952441549e-02  6.2658508788121514e-02  5.9351220236462894e-02  5.8343253969871223e-02  7.9301493737888432e-02  6.8704053176744928e-01  -3.0961543634487715e-01  1.0196059025412847e-01  9.3983583600610612e-02  5.6392728099112721e-01  6.6089099120663242e-01  5.4390237368482121e-02  1.0370411995268734e-01  1.0530691505717472e-01  3.5939839285345852e-02  3.9402080439553420e-02  2.5928862587135320e-02  2.4860700251647831e-02  -4.7967244032832335e-01  4.4210161736737363e-02  4.1276955466421829e-02  4.2820607796402599e-01  9.3732015436996163e-02  -8.8957239375093367e-01  3.6186567575058903e-01  7.1773596455662420e-02  1.0056748281095484e-01  1.0442577495279813e-01  3.0249759398809639e-02  8.7042404395075004e-02  -7.5587474861719106e-01  4.7643395223272850e-02  9.1684270685499822e-02  5.6544561466553969e-02  -2.6251102771394946e-02  7.9121299572230866e-02  -6.7926640686469120e-01  1.1156229714526802e-01  5.5998547742413425e-