<?xml version="1.0"?>
<VTKFile type="UnstructuredGrid"  version="0.1"  >
<UnstructuredGrid>
<Piece  NumberOfPoints="2362" NumberOfCells="4391">
<Points>
<DataArray  type="Float64"  NumberOfComponents="3"  format="ascii">0 0.41 0  0 0 0  2.2 0 0  2.2 0.41 0  0.2404508497187474 0.2293892626146237 0  0.25 0.2 0  0.2404508497187474 0.1706107373853764 0  0.2154508497187474 0.1524471741852423 0  0.1845491502812526 0.1524471741852423 0  0.1595491502812526 0.1706107373853764 0  0.15 0.2 0  0.1595491502812526 0.2293892626146237 0  0.1845491502812527 0.2475528258147577 0  0.2154508497187474 0.2475528258147577 0  0.5951056516295153 0.2309016994374948 0  0.6 0.2 0  0.5951056516295153 0.1690983005625052 0  0.5809016994374947 0.1412214747707527 0  0.5587785252292473 0.1190983005625053 0  0.5309016994374948 0.1048943483704846 0  0.5 0.1 0  0.4690983005625052 0.1048943483704847 0  0.4412214747707527 0.1190983005625053 0  0.4190983005625052 0.1412214747707527 0  0.4048943483704846 0.1690983005625053 0  0.4 0.2 0  0.4048943483704847 0.2309016994374948 0  0.4190983005625052 0.2587785252292473 0  0.4412214747707527 0.2809016994374948 0  0.4690983005625053 0.2951056516295154 0  0.5 0.3 0  0.5309016994374948 0.2951056516295154 0  0.5587785252292473 0.2809016994374948 0  0.5809016994374947 0.2587785252292473 0  1.1 0 0  0 0.205 0  1.1 0.41 0  0.55 0 0  0.55 0.41 0  0.275 0 0  0.275 0.41 0  0.4125 0 0  0.4125 0.41 0  1.65 0.41 0  1.65 0 0  1.375 0 0  1.375 0.41 0  1.925 0 0  1.925 0.41 0  0.8250000000000001 0 0  0.8250000000000001 0.41 0  1.5125 0.205 0  1.7875 0.205 0  0.9625000000000001 0.205 0  1.2375 0.205 0  2.2 0.205 0  1.99375 0.2152743902439024 0  0.7815916808149406 0.1777281409168082 0  2.0625 0 0  0.6875 0.41 0  2.0625 0.41 0  2.2 0.3075 0  0.6875 0 0  1.7875 0.41 0  1.375 0.1486128048780488 0  1.5125 0 0  1.7875 0 0  1.5125 0.41 0  0.9625000000000001 0 0  0.9625000000000001 0.41 0  0.1375 0 0  0.1375 0.41 0  1.2375 0 0  1.1 0.1486128048780488 0  1.2375 0.41 0  1.65 0.1486128048780487 0  1.676715909090909 0.2793064024390244 0  1.126715909090909 0.2793064024390244 0  1.348284090909091 0.2793064024390244 0  0.7111837382351637 0.2844002487563727 0  1.894702181800738 0.1282910975492754 0  2.092797818199262 0.1282910975492754 0  1.85625 0.3075 0  0.89375 0.3075 0  0.89375 0.1025 0  0 0.3075 0  0 0.1025 0  2.099172119769978 0.25625 0  1.002356446954348 0.1010393851523063 0  1.99375 0.08395950269330846 0  1.459960956013612 0.3075 0  1.569025960719943 0.2986889805672169 0  1.03125 0.3278689922742084 0  0.3192727088781826 0.3079212096616675 0  1.959375 0.3126371951219512 0  1.749222215368287 0.1025 0  1.275777784631713 0.1025 0  2.2 0.1025 0  1.225938124459196 0.3075 0  1.550777784631713 0.1025 0  1.44375 0.07430640243902442 0  1.16875 0.07430640243902439 0  0.3437500000000001 0.07397709473011121 0  0.6911993143367559 0.1118123074367635 0  0.8057215702682121 0.2702269632945269 0  1.899250267340833 0.2229966846119207 0  0.8720458404074704 0.1913640704584042 0  0.8032958404074703 0.0888640704584041 0  0.6337831477789919 0.3348380330536306 0  0.1020898364287272 0.3140258291809757 0  1.766482954545455 0.2934032012195123 0  1.051658316544432 0.2265720188842194 0  0.2 0.3400647632937836 0  1.421109702350723 0.2261157654379721 0  0.61875 0 0  0.6878950265164463 0.199645915719726 0  0.098916018031319 0.09171660955420841 0  2.13125 0 0  2.118919042110979 0.3422084711244843 0  1.30625 0.41 0  0.20625 0 0  1.597888256393107 0.2173787389261347 0  0.7562500000000001 0.41 0  1.829299675393195 0.07400700849299596 0  1.71875 0.41 0  0.3225835293916391 0.1601701968669111 0  0.2606666398188512 0.0822552582932282 0  1.16875 0.41 0  2.038220665644273 0.332420740103091 0  0.176193934632343 0.0734896648625108 0  0.07390688010811153 0.1697064032433452 0  0.05452951551825875 0.25625 0  1.452769549894695 0.1548122580621249 0  1.369219062229598 0.07430640243902442 0  1.30625 0 0  1.075792183788687 0.07430640243902439 0  1.720943423819132 0.1714577452753128 0  1.157188124459196 0.205 0  1.304056576180868 0.1714577452753128 0  1.67579304192913 0.07430640243902437 0  0.7671326277666176 0.3352102652308781 0  0.3304630541488595 0.2342593631089261 0  1.209670467133757 0.136210026696477 0  0.7562500000000001 0 0  1.58125 0 0  0.9945036230615469 0.267761374151655 0  0.4812500000000001 0.41 0  0.06875000000000001 0.41 0  0 0.35875 0  0.9595378427479357 0.3376804103519943 0  0.34375 0.41 0  0.3897250743675729 0.3371889980614159 0  1.58125 0.41 0  1.631724228912893 0.3381867502687533 0  1.825608881788174 0.14499488549201 0  1.85625 0 0  1.44375 0 0  1.44375 0.41 0  1.85625 0.41 0  2.13125 0.41 0  0.89375 0 0  0.89375 0.41 0  0.20625 0.41 0  0.34375 0 0  0.4812500000000001 0 0  0.06875000000000001 0 0  0.61875 0.41 0  1.16875 0 0  1.03125 0.41 0  1.03125 0 0  1.71875 0 0  1.99375 0 0  1.99375 0.41 0  1.340625 0.3489494290853124 0  1.134375 0.3489494290853123 0  1.700180620188976 0.3438659752031281 0  1.033412357328477 0.1612902025713048 0  2.135782184673599 0.07126652247502523 0  1.668441847249787 0.2129203728327609 0  1.295782514339747 0.2378437748815763 0  0.6228574598132852 0.07671664390624158 0  1.409375 0.3520314716057996 0  2.129248544730567 0.1906135162504124 0  2.060771381434487 0.1989445750470348 0  2.013252586573865 0.1496169464686054 0  1.942766402200229 0.1734448904596831 0  1.895522487186454 0.06076163953489683 0  2.069553871656643 0.06605731020975725 0  1.274680914880868 0.3520219391081363 0  0.835055311278239 0.3424380136622334 0  0.7401021045332367 0.06543430142341211 0  1.614713220494657 0.09473434380863296 0  0.7520823699979313 0.2348229030472582 0  0.7043417970120415 0.3481429366232311 0  0.6546643048326494 0.2543538116156937 0  1.72990325744076 0.2380068107952482 0  1.356580098625191 0.2120393231351682 0  2.034370752044885 0.2668681600792073 0  1.51768709249349 0.3426260931494756 0  1.561883724969884 0.1650446847858835 0  0.2653439943239876 0.345171903972789 0  0.8330496081674507 0.1432136774486613 0  0.9281250000000001 0.05125000000000001 0  0.9330537010450736 0.2595558360668175 0  1.197344062229598 0.2523725417393646 0  1.804085235518364 0.3468178408964637 0  1.817887819205233 0.2589243285818559 0  1.905897727272727 0.3485060975609756 0  0.9485678863664097 0.1400383079249692 0  0.859375 0.05125 0  0 0.05125 0  0.4074403514301243 0.06423252630440013 0  0.5245798370136819 0.3551909831755992 0  0.7505241288352321 0.1253952068674773 0  0.2619923711861096 0.2853251789076993 0  0.8650169191207625 0.2527737409589524 0  1.192836486056382 0.3562350748565544 0  0.446875 0.3592802242693868 0  1.28257088594801 0.2944411014911587 0  1.474860187679412 0.2504218616229368 0  1.406767003493824 0.2829282258560709 0  1.845656689180403 0.1998310418452388 0  2.144958525570388 0.2909790873294231 0  2.2 0.15375 0  0.5843750000000001 0.3640402812892887 0  1.57794966442982 0.3540357145964566 0  0.6847665055715617 0.05605778745887328 0  0.637863756942103 0.1315837975700875 0  0.515625 0.04531250000000001 0  0.5718106469538725 0.0522410511374206 0  0.0496154796471391 0.333125 0  0.3662446794185922 0.2773760459259736 0  1.508991196088596 0.1421783375065625 0  0.09776612425612034 0.2204896805326566 0  1.50436820029908 0.06143401634903343 0  1.223857000523521 0.08235548624535324 0  1.153316824384777 0.1289850171317838 0  2.148922302309752 0.1258841779285271 0  1.621993280276081 0.2841214267927899 0  1.550118654119087 0.2461998729100966 0  1.327182649291491 0.1216967252533594 0  1.753125 0.04556020050186112 0  1.271875 0.04556020050186116 0  0.9824282234771738 0.05051969257615315 0  1.94956388244759 0.1180512551534177 0  1.949997712993411 0.04965831614304109 0  1.771961817615021 0.1530278789497521 0  1.909246823951428 0.2812757146784527 0  1.106872424375684 0.2277674570637181 0  1.948575539857022 0.2445328248721197 0  1.697271520964565 0.1233917627620729 0  1.065625 0.3689344961371042 0  1.085849084308977 0.3170853572226867 0  1.577403511714593 0.05463601888079143 0  0.05622663515370135 0.05493816910862376 0  1.751571320346033 0.3651102912045228 0  0.1583785085108421 0.2994699345738728 0  0.1455283439499995 0.3542795598723423 0  2.2 0.35875 0  0.4605652621775715 0.05075477778725031 0  0.1455852234589313 0.1166494778469164 0  0.3170871189130322 0.3624193665482365 0  1.466879772203159 0.3611261772912453 0  1.045297740100467 0.2779948725912803 0  1.990280163552011 0.3564754268533217 0  1.17471064520912 0.2990917256188288 0  0.8219886595034398 0.2165866596606327 0  0 0.25625 0  2.2 0.25625 0  2.2 0.05125 0  0 0.15375 0  1.853978576207987 0.35875 0  0.884510791938353 0.35875 0  1.000341183849677 0.3689344961371042 0  1.515638456102889 0.2882700110184686 0  0.09048297387599738 0.3637717362208066 0  2.150453692751374 0.2387066338105111 0  1.323782677156475 0.04897634338873398 0  1.409375 0.03715320121951221 0  1.406484531114799 0.1087852750766809 0  1.134375 0.03715320121951219 0  1.627401732573545 0.04552157221025036 0  0.2990651506063402 0.04656992046979862 0  0.3658138865510369 0.1250908110711949 0  2.045405893604797 0.1105340662939892 0  1.255408269734577 0.1577307500159216 0  0.7848198562432198 0.04176011905165711 0  2.028125 0.03707597992059326 0  0.04420832937638274 0.128125 0  0.1197849154434487 0.2663398672460083 0  0.2773440361767429 0.1325614896367195 0  1.248258025468107 0.2565907092181813 0  0.1300647302703173 0.0508462728378621 0  1.203125 0.03661323374043041 0  0.221416587416242 0.04909393590284095 0  2.072662025974815 0.2975086504196739 0  0.7309361959118756 0.1724117473133809 0  1.049057507569546 0.1150968098952652 0  1.029426696124534 0.0611707995214115 0  0.7592092911094858 0.2823604815974596 0  1.113520643506534 0.1031115419092917 0  1.887722846421017 0.1760882698830035 0  0.7976278545651526 0.3713969152554929 0  0.8476376957455005 0.2968044376629371 0  1.472640588990488 0.1118278026240017 0  1.865937103925594 0.2604137786483804 0  1.463913572748262 0.2030442564990043 0  0.2154602920799496 0.2951006307678045 0  1.376426316059077 0.3186741374914345 0  0.928125000000
[...]
<PointData  Scalars="f_43"> 
<DataArray  type="Float64"  Name="f_43"  format="ascii">-1.7638385758266514e+90  -1.7772692708303168e+90  -7.1668394948877568e+82  3.1594587743381479e+82  -1.7630943567498014e+90  -1.7705077859449815e+90  -1.7778790666130737e+90  -1.7807165261377446e+90  -1.7789965202569420e+90  -1.7752683455550189e+90  -1.7707729708867599e+90  -1.7662754922137540e+90  -1.7625232089566806e+90  -1.7607019122012343e+90  -1.6463348647871817e+90  -1.6637475375837438e+90  -1.6835842454836521e+90  -1.6724739131734325e+90  -1.5284388870765678e+90  -1.4125006852109013e+90  -1.7570763312191248e+90  -1.7740091272326132e+90  -1.7980779543480457e+90  -1.7944318783418591e+90  -1.7825994212889451e+90  -1.7688518797279858e+90  -1.7539896135437738e+90  -1.7379001884283761e+90  -1.7202683178620077e+90  -1.7009983376786446e+90  -1.6804236019176100e+90  -1.6611915950290611e+90  -1.6466142504600745e+90  -1.6407440019242338e+90  -1.2273198124460574e+90  -1.7704502480831770e+90  -1.2164082936869399e+90  -3.0113193855619447e+90  -1.6556316286208167e+90  -1.7957017048595093e+90  -1.7475779190723681e+90  -1.8553812200618847e+90  -1.7146520118849596e+90  -6.1080770279055990e+89  -6.1097129557915453e+89  -9.1700141869021576e+89  -9.1567166869730115e+89  -3.0544940960694565e+89  -3.0543253781438596e+89  -1.5785482227296702e+90  -1.4874480673356737e+90  -7.6361255502739343e+89  -4.5816482204435474e+89  -1.3738064234007161e+90  -1.0690499969982754e+90  -5.8964268187226936e+82  -2.2907889018537106e+89  -1.5773948675691531e+90  -1.5272292938610227e+89  -1.5861032214124442e+90  -1.5271751229157194e+89  4.6416277805970007e+80  -1.8782989866596669e+90  -4.5813751008429855e+89  -9.1661107532535200e+89  -7.6384596888621238e+89  -4.5819299770398657e+89  -7.6338014600507555e+89  -1.3908492381083774e+90  -1.3595295905102902e+90  -1.7810325169523877e+90  -1.7603144057600455e+90  -1.0709713533641940e+90  -1.2240179826014690e+90  -1.0671671355404155e+90  -6.1092359304097790e+89  -5.8117954278740302e+89  -1.1896928688728976e+90  -9.4556884240111099e+89  -1.5882575351741448e+90  -3.3909923118749254e+89  -1.1906916939981006e+89  -3.8179170582140964e+89  -1.4322241046716540e+90  -1.4694211085794465e+90  -1.7656764202982416e+90  -1.7753269492082462e+90  -1.1198841235328139e+89  -1.3384668409697639e+90  -2.2908353859507556e+89  -8.2172268000065335e+89  -7.0072876192217609e+89  -1.2907606173930055e+90  -1.7473178970345579e+90  -2.6725595274967934e+89  -5.0070806338126038e+89  -1.0275439197158805e+90  8.0577693519844393e+82  -1.0804318879725719e+90  -7.2121949067383812e+89  -8.4030493391134284e+89  -1.1481413781517586e+90  -1.8035320356509615e+90  -1.7340139915088314e+90  -1.5206301201518668e+90  -3.3403969005111654e+89  -1.4754592121955717e+90  -1.5934115044509832e+90  -1.6188234791199100e+90  -1.7637872589062770e+90  -4.8148839372191579e+89  -1.2740068851613527e+90  -1.7574603137763869e+90  -8.6504411173058349e+89  -2.2493030385684337e+90  -1.6417694333006456e+90  -1.7773395335262516e+90  -7.6360517923471525e+88  -9.0054877848142852e+88  -9.9157660900896738e+89  -1.7863605932027770e+90  -6.6875898457308074e+89  -1.5411692324723551e+90  -4.1175334980750280e+89  -5.3447919764901729e+89  -1.7799835233478986e+90  -1.7887919760273243e+90  -1.1422286500484984e+90  -1.7968429252395783e+89  -1.7820825813251618e+90  -1.7726781325405824e+90  -1.7675225689725944e+90  -8.3009314124804172e+89  -9.2334076484058906e+89  -9.9382782718498799e+89  -1.2542422771379614e+90  -5.3210306229827086e+89  -1.1582254472707525e+90  -9.9541987396164341e+89  -5.8229657958294397e+89  -1.5386885775838353e+90  -1.7607049792568670e+90  -1.1011442931969602e+90  -1.6999959370396903e+90  -6.8738864448131243e+89  -1.3330719119311644e+90  -1.6870877287770984e+90  -1.7629766458388495e+90  -1.7643100147714648e+90  -1.3645115131328523e+90  -1.7346897932084549e+90  -1.7270194786507211e+90  -6.8711378034693186e+89  -6.3110863610976053e+89  -4.1584575414352865e+89  -3.8181866592948276e+89  -8.4036766956864148e+89  -8.3958200491923634e+89  -3.8178703691196271e+89  -7.6359437354256422e+88  -1.4795294014933183e+90  -1.4262318198067422e+90  -1.7554790601630235e+90  -1.8136509577437119e+90  -2.0573791623373781e+90  -1.7781870620571208e+90  -1.6229877547838528e+90  -1.1486704945244185e+90  -1.2891402405302066e+90  -1.3076264620034733e+90  -5.3457480449983490e+89  -2.2908473843211759e+89  -2.2907570981387369e+89  -9.5374697702695475e+89  -1.1798909049214555e+90  -5.5510424972456599e+89  -1.2985355414387497e+90  -7.1326684960397380e+88  -5.9040089095411656e+89  -1.0040168068754384e+90  -1.9120278489299543e+90  -8.7769367167827959e+89  -7.8582653958117973e+88  -1.5464035948030445e+89  -2.0742049925193827e+89  -2.8570936832273730e+89  -3.3819236275309939e+89  -1.4488648928837358e+89  -1.0264728393718333e+90  -1.4824709866432117e+90  -1.7078622750054517e+90  -6.5016290630917383e+89  -1.5775105250509680e+90  -1.5797135448659162e+90  -1.6271654568891724e+90  -5.2212821992387714e+89  -9.3675016794161137e+89  -1.8396160724263677e+89  -7.5765744563366809e+89  -7.0880910210839780e+89  -1.7509849998299094e+90  -1.5339692938520819e+90  -1.4323236781008074e+90  -1.3985872213251612e+90  -1.1127262071160879e+90  -4.3972171494753380e+89  -4.2440362012949391e+89  -3.2664905056139263e+89  -1.3977816250816628e+90  -1.5233372213323780e+90  -1.7767625362853849e+90  -1.8244193795637940e+90  -1.6675545267527171e+90  -1.6448898058517807e+90  -1.7564803645155621e+90  -1.4689260963089878e+90  -1.1162296606460012e+90  -1.7035207264827239e+90  -1.0181450303593764e+90  -8.0531307956667072e+89  -8.8075874935310170e+89  -3.9356946096428810e+89  -6.1133386821834713e+88  -5.8964268187226936e+82  -1.6399061461021371e+90  -6.9078810631239046e+89  -1.8367545135988113e+90  -1.7309548752025598e+90  -3.3475406474605261e+90  -2.3534975609476007e+90  -1.7644872042180525e+90  -1.7449626676165782e+90  -7.6761953048701342e+89  -1.7691962487889866e+90  -7.7286516828061710e+89  -1.0859175354759809e+90  -1.1645392146028164e+90  -5.6732160977583704e+88  -6.4193910927512080e+89  -7.2177439674960099e+89  -9.7001528323804455e+89  -4.9638117519448450e+89  -1.0322568556575977e+90  -1.3651704835031198e+90  -2.7816169925074737e+89  -2.7768274754953108e+89  -4.7543510820784307e+89  -3.2293235571582935e+89  -1.2131819087197598e+90  -2.7925398380467523e+89  -5.5841687566495432e+89  -1.2533226608414385e+90  -1.2329197381061367e+90  -6.9165255401586953e+89  -1.7772632726586009e+90  -4.9803690071983746e+89  -1.7618343020681652e+90  -1.7605771776655912e+90  4.3836558950036954e+82  -1.8676502441916183e+90  -1.7782570077776818e+90  -1.7419798141408101e+90  -8.1397667474485165e+89  -1.2780773600711760e+90  -2.3292980908503522e+89  -1.1367721299066035e+90  -1.5208883138304910e+90  -1.7678214270628747e+90  4.6416277805970007e+80  -5.3151795701701810e+82  -1.7731101932005934e+90  -3.8431092838577474e+89  -1.4364216816487666e+90  -1.3216438915817358e+90  -7.5999138927941328e+89  -1.7627692594341105e+90  -5.5030109098864429e+88  -9.7414048043284312e+89  -8.7864401211307730e+89  -8.8171603104220569e+89  -1.1876652618296673e+90  -6.3608067292323575e+89  -1.7982060243886124e+90  -1.7931068023987440e+90  -1.7170828906454330e+89  -1.0497499377865048e+90  -1.6392528323000598e+90  -1.9090350813461801e+89  -1.7745427563331671e+90  -1.7654663350962406e+90  -1.7835163061983741e+90  -1.0564296649026809e+90  -1.7799910991349982e+90  -1.1096309140893562e+90  -1.7868871038952429e+90  -1.4143176625286509e+89  -1.6304574258794677e+90  -1.2834457187671842e+90  -1.3086674049498578e+90  -1.5556152327103488e+90  -1.2102191983849589e+90  -3.4684739444073611e+89  -1.5111994713402229e+90  -1.4773716310200225e+90  -8.0809078918764346e+89  -3.7103687547292409e+89  -8.1758251795122443e+89  -1.7585731745923625e+90  -9.1424887445902390e+89  -1.3934147503127723e+90  -1.6348713810442353e+90  -1.6009216535027362e+90  -1.6022006154451887e+90  -1.4245454636853768e+90  -1.3213821214812842e+90  -1.2445199658224662e+90  -1.4360931773239932e+90  -1.4683652790838697e+90  -1.5291422144127290e+90  -1.4148823646456825e+90  -5.3073464523125658e+89  -1.8295044743897526e+90  -4.7318178417935046e+89  -1.0537946870533882e+89  -8.9372237906409097e+89  -1.7642896539565947e+90  -1.9089717343695900e+89  -6.6317589528738682e+89  -1.7746668496924241e+90  -4.3096008604899413e+89  -1.7905890236642974e+90  -1.7701893568073703e+90  -2.3275347991214074e+89  -4.1545902968470415e+88  -1.1453845545500062e+89  -1.3837919544593519e+89  -1.7818365727158700e+90  -1.3532388095657917e+90  -1.6121155885091535e+90  -1.6786255618607553e+90  -1.6747517750248590e+90  -6.4896434953254306e+89  -1.7536815046109877e+90  -4.5163586217092762e+89  -1.6489906209604828e+90  -1.7710722944357272e+90  -2.1530161815693414e+89  -9.0744473279817481e+89  -1.7557729773515558e+90  -1.2672072257940677e+90  -2.0142935599205828e+90  -1.1141147175564504e+90  -8.0209595585779001e+89  -6.3145494061020719e+89  -7.2525288875348436e+89  -1.7256554036880321e+90  -1.7319839607203583e+90  -5.7277099221749640e+89  -5.4609667124145441e+89  -4.5104948187588268e+88  -4.4988296021615885e+88  -1.7636210385800413e+90  -6.2769528833686706e+89  -4.4719416594112860e+89  -3.6901409048062092e+89  -7.2561024287585168e+89  -2.8158550751112872e+89  -1.5874809300731601e+90  -1.7779363758409974e+90  -4.1996277017227480e+89  -5.1510679234302988e+89  -1.7833295894374882e+90  -5.9561318093367801e+89  -1.7733354414549051e+90  -1.3908754580136132e+90  -1.7582067986635891e+90  -1.5918965571398537e+89  -7.1798994119430024e+89  -1.0706353354845210e+90  -1.1756014438662290e+89  -8.1306592103010489e+89  -1.8197558901744414e+90  -1.2343151659957536e+90  -6.7767413560951989e+89  -1.5647709355134838e+90  -1.5531990167029341e+90  -1.7836846243405549e+90  -1.1716676087208150e+90  -1.1813781128400367e+90  -4.3534732503525527e+88  -1.7793366808097043e+90  -9.7545769913339897e+89  -1.6907859617945144e+90  -2.3406749915057721e+89  -3.4361006460731327e+89  -1.3952570150287067e+90  -3.8054018732446786e+89  -3.4363388712936082e+89  -3.0148125323988311e+89  -7.6550871262259412e+89  -5.4102845395286967e+89  -5.9349956206068555e+89  -6.0746789828033768e+89  -1.7774863570074599e+90  -1.7156730842344848e+90  -1.4576596788233301e+90  -1.7638724607182095e+90  -1.8104233403336446e+89  -1.3324241683024859e+90  -1.2331462494025085e+90  -8.7296249621686265e+89  -1.5131580154610514e+90  -1.8044196037151776e+90  -1.7921447632803131e+90  -1.6482617695243786e+90  -1.7655021725491270e+90  -1.7225275069474070e+90  -1.8028081194412321e+90  -1.7750685158544054e+90  -1.6204336173180828e+90  -4.6809253441857632e+89  -1.7316539969884233e+90  -1.7380119886564907e+90  -1.7206358315301549e+90  -7.8935117971376992e+89  -1.6839902443027780e+90  -1.7726269128585098e+90  -1.5646715884317816e+90  -1.8593559642714386e+89  -8.3980321385795738e+89  -1.7580550517641109e+90  -7.6339934572194840e+89  -1.5780890508222851e+90  -1.7665773285533840e+90  -7.4471910241045796e+89  -5.0271112363056016e+89  -1.0244853773158165e+90  -5.1929568212291471e+89  -1.0084868473330986e+90  -9.2321061785513221e+89  -9.3298774734521888e+89  -5.7109889455566410e+89  -9.5703235408297910e+89  -1.7555915300564137e+90  -2.5121726653250445e+89  -1.6221047706629733e+90  -1.0626974287272480e+90  -1.1206944933028626e+90  -1.5183876544071173e+90  -1.7762429434448284e+90  -6.6393389540605970e+89  -5.9109572763333507e+89  -1.7782969719415558e+90  -1.6360306028209033e+90  -1.8126160983027063e+90  -2.2511317108297654e+90  -1.7762772350793056e+90  -1.7839588783795657e+90  -6.3600514537579197e+89  -6.7149123138758320e+89  -7.4432502788605160e+89  -1.6105875174910622e+90  -4.2000489753807295e+89  -1.5209349994908602e+89  -1.9197266920060922e+89  -9.8802695157560682e+89  -1.0156631045305427e+89  -1.8077493572889320e+90  -1.3598332718176253e+90  -1.5576412190986664e+90  -9.2155254474744523e+88  -4.0762565829616682e+88  -4.7535965623873967e+89  -7.2946627191460672e+89  -1.4735981181135828e+90  -8.8019821934246484e+89  -1.6715475482937008e+90  -1.2191992308646948e+90  -3.9056810549232307e+88  -8.9001422697793848e+88  -2.6988026950774729e+89  -1.0149591802190685e+89  -1.1067036860752228e+90  -3.7944661175605791e+89  -4.4176619745982558e+89  -1.2870820182541360e+90  -1.7551079164098189e+90  -1.3436564307604744e+90  -1.3020388134615389e+90  -1.7851606009266625e+90  -1.7955685754351398e+90  -1.7717269688230670e+90  -1.3487569139364943e+90  -1.7822249968925102e+90  -1.1508657831398198e+90  -1.1794601020149112e+90  -9.8901975514331298e+89  -9.5365267012305998e+89  -9.1668554042047317e+89  -1.1734204972788052e+90  -8.5317362396871222e+89  -1.9062581083810471e+90  -1.8589429505804609e+90  -8.6911056500422577e+88  -1.1047791571516711e+90  -3.8419160138279173e+89  -1.0700343944238934e+90  -1.3281000326292722e+90  -1.1888162032003860e+90  -8.7584408346143148e+89  -5.7264565488084656e+89  -2.2971922239665374e+89  -1.8985716956348512e+89  -2.6623482650904954e+89  -1.0294192606589544e+90  -1.1980992052539621e+90  -1.1485777537556353e+90  -9.5538362133866430e+89  -3.8181228153818012e+88  -1.1454175955283836e+89  -1.1878414390077784e+90  -8.7866680932222939e+89  -8.0149111407087530e+89  -4.9630950923770893e+89  -1.2530031100047714e+90  -4.9638278305959141e+89  -1.4751534485662471e+90  -1.4342570466209413e+90  -8.7764355102079049e+89  -3.8179237119927906e+88  -1.7016710617084877e+90  -1.7903316998737663e+90  -1.7618895707328118e+90  -1.7520008681936126e+90  -2.6415528541632554e+90  -1.6053656946508180e+90  -1.5153290933803573e+90  -1.6353132589296121e+90  -1.8030891887912867e+90  -1.7418815483665920e+90  -2.5203619957693240e+90  -2.0206082482717090e+90  -1.6395359507653349e+90  -1.5272547159837656e+90  -1.1097316514839014e+90  -6.4917629978235293e+89  -1.3246846539096393e+90  -2.6726629449000405e+89  -1.0323465156051564e+90  -1.9090387287629777e+89  -2.6725394578376796e+89  -5.3583082115718874e+89  -2.1035431269386561e+89  -1.5936839818299280e+90  -1.4338906489071965e+90  -8.4547594097780365e+89  -1.1441753723941052e+90  -1.4572185884218590e+90  -1.4284760217859760e+90  -1.7304347488616889e+90  -1.4058200011816344e+90  -1.3666350959741162e+90  -1.2635988385411176e+90  -1.2822442335343830e+90  -1.3171829169121354e+90  -9.6159021289499735e+89  -9.8555387629426139e+89  -1.7796913630493302e+90  -1.1428556101037967e+90  -7.3492102335427283e+89  -7.8378324296959800e+89  -1.3588357974308944e+90  -3.2454141266686849e+89  -1.6765097539278458e+90  -1.7027933274942665e+90  -1.8045070089908864e+90  -1.7638798697566276e+90  -1.6461786086063064e+90  -8.4247152471692878e+89  -8.5862784427880459e+89  -5.5377386324976075e+89  -3.4150505420500199e+89  -1.8142311869690255e+90  -1.1951727957320036e+90  -5.4802171540709888e+89  -4.1231935835767295e+89  -5.9062460933663549e+89  -9.8459500086097560e+89  -3.0445488543474668e+89  -7.8228938011981950e+89  -1.7691003729665517e+90  -6.6820045520971003e+89  -1.4378795617878501e+90  -1.5386904779693643e+89  -1.2521526105056710e+89  -1.3889978692766261e+90  -9.2909743496376958e+89  -1.7671591476309659e+90  -1.0587942534041321e+90  -3.0606710794258223e+89  -3.1730393255645417e+89  -1.7613191889329979e+90  -1.2656180963630235e+89  -1.7803262270507611e+89  -4.3905085668015866e+89  -1.2446726394391679e+90  -1.7469126467001179e+90  -1.7475025374655884e+90  -1.4694438232184567e+90  -4.0654749480077016e+89  -5.5804326494729063e+89  -3.9685758408715052e+89  -1.2876063230573972e+90  -2.6526865571906475e+89  -1.6357634075072081e+90  -3.5195848060824057e+88  -1.5040670011815635e+90  -1.7717033142864914e+90  -7.0010341279447981e+89  -6.8709646815262860e+89  -6.1921620860693394e+89  -3.2452175143020911e+89  -1.5765592808191401e+90  -1.5495853323715873e+90  -1.5876239797240355e+90  -1.6211797262679007e+90  -1.7501970626207388e+90  -7.0618767318556868e+89  -1.6089546634583517e+90  -1.6370630959280469e+90  -1.4000783436220152e+90  -1.1558088708940965e+90  -1.3763363874964600e+90  -6.7088664223613442e+89  -1.7765836716734512e+90  -7.4065567742820923e+89  -9.5272976403427416e+89  -1.7574740542448752e+90  -3.6269889283124603e+89  -1.3969667860733096e+90  -2.8782180900707570e+89  -1.5621903454893379e+90  -1.0796016695244455e+90  -7.0649479508465415e+89  -4.3194475575034226e+89  -1.1114801754144170e+90  -1.7674606231188397e+90  -5.0302277490771226e+89  -1.7595621495880177e+90  -1.0444108552997870e+90  -1.0861684859224344e+90  -1.1374919346400003e+90  -1.3082765714477687e+90  -5.9671643584371143e+89  -8.0583419215393638e+89  -1.5650872552034016e+90  -1.5551701986961590e+90  -1.5843189323143010e+90  -4.5150252795925820e+89  -4.0397383016166431e+89  -1.1842443294649259e+89  -7.7996228459404355e+89  -1.4526746045620337e+90  -1.4928857800505785e+90  -1.4690704169836457e+90  -2.5062239349525981e+89  -1.4119359520371418e+90  -1.7771453118813181e+90  -1.7772503889888666e+90  -7.3277220591656365e+89  -3.3474801881473332e+89  -1.0074843563711663e+90  -1.7526323221733006e+90  -1.7653725873826753e+90  -1.5641041228670239e+90  -1.4959064096496802e+90  -7.2328164072551290e+89  -1.7097369361452473e+90  -1.7159643477154144e+90  -1.8904171486707088e+90  -1.7890529332390984e+90  -2.4408833295864089e+89  -1.3698966442038615e+90  -9.4916148200520561e+89  -1.6092329629369239e+90  -1.0493408086798883e+90  -4.0087537553749390e+89  -1.6547085403409903e+90  -1.6754015418250479e+90  -1.7781566628866864e+90  -1.7687731305652283e+90  -1.1122817809773509e+89  -4.1384553208331673e+89  -1.0833787724940033e+90  -6.3376359859428059e+89  -3.5692154520905049e+89  -1.7599317835431717e+90  -7.7937664689934794e+81  -1.7819092677182294e+90  -1.1690547116341701e+90  -6.1278256927516839e+89  -3.9400480048109323e+88  -1.5324246315620761e+90  -1.5081139340889083e+89  -1.7623095277617070e+90  -1.7623755680065548e+90  -3.3774121629617240e+89  -1.3335739115611122e+90  -8.9698421219169588e+89  -8.3149961255585026e+89  -8.0757531363430120e+89  -7.8426309908978120e+89  -8.4530918733595197e+89  -3.6631841434444161e+89  -1.7649480203528717e+90  -1.5152126924805644e+90  -1.8381711665246365e+90  -1.6038507514235203e+90  -9.1284027607369833e+89  -8.6705476748094734e+89  -3.6020439396191451e+89  -6.9821211607895616e+82  -1.7595400680455272e+90  -1.7613346564484802e+90  -1.7597192492583267e+90  -1.0526755445275338e+90  -1.0229077924132893e+90  -1.0199591274101972e+90  -1.7541522085715961e+90  -5.2216615010431052e+89  -1.2020694536443545e+90  -1.6999877067809460e+90  -2.1355079954708761e+89  -1.6980112042514745e+90  -7.9915468885152863e+89  -6.2270847896500059e+89  -1.7799830218340335e+90  -4.7722425281190344e+89  -1.8781766427494020e+90  -7.0456176615745384e+88  -7.7614054608009766e+88  -3.2222919384570781e+88  -1.3057905283545766e+90  -2.8761080231935369e+90  -3.9451687214343369e+90  -3.6415826051562858e+89  -2.3627876200810599e+89  -1.2217401470395275e+90  -1.9289126559169195e+90  -1.5621605177964553e+90  -1.4483416253988586e+90  -1.6955845040343659e+90  -1.0019646125798247e+90  -5.1547787628687806e+89  -4.7288313322589029e+89  -1.7965745425227171e+90  -1.3620781632939890e+90  -6.7473471811515248e+89  -1.7932607374756302e+90  -1.7380921888501245e+90  -2.0708479618410904e+90  -1.1327826389675566e+90  -1.1932563826764071e+90  -9.5811354164915314e+89  -1.0895553917411894e+90  -1.5324714468501623e+90  -1.0166995619452668e+90  -1.2489422561470390e+90  -1.7596882647249091e+90  -1.4966442174069793e+90  -1.4164467040331779e+90  -1.2181223318616598e+90  -1.7688055154981900e+90  -5.8964268187226936e+82  -1.7711456101579053e+90  -1.7688436629940475e+90  -1.7426362928713075e+90  -6.9297392371934333e+89  -6.5850763891359852e+89  -1.5446529972327533e+90  -1.4971796824392827e+90  -1.7403679464184929e+90  -3.1085101497631287e+89  -1.7654590815967486e+90  -1.7648914574728697e+90  -1.7642950996269374e+90  -2.8794730180508204e+89  -1.2266206396449909e+89  -7.4532727451018055e+89  -7.0584278993291684e+89  -6.9376943642057585e+89  -9.4572233226410057e+89  -1.7764164127464410e+90  -1.6317627952746234e+90  -1.2114782943271168e+90  -1.1164923162513346e+90  -1.7906557019335082e