<?xml version="1.0"?>
<VTKFile type="UnstructuredGrid"  version="0.1"  >
<UnstructuredGrid>
<Piece  NumberOfPoints="2362" NumberOfCells="4391">
<Points>
<DataArray  type="Float64"  NumberOfComponents="3"  format="ascii">0 0.41 0  0 0 0  2.2 0 0  2.2 0.41 0  0.2404508497187474 0.2293892626146237 0  0.25 0.2 0  0.2404508497187474 0.1706107373853764 0  0.2154508497187474 0.1524471741852423 0  0.1845491502812526 0.1524471741852423 0  0.1595491502812526 0.1706107373853764 0  0.15 0.2 0  0.1595491502812526 0.2293892626146237 0  0.1845491502812527 0.2475528258147577 0  0.2154508497187474 0.2475528258147577 0  0.5951056516295153 0.2309016994374948 0  0.6 0.2 0  0.5951056516295153 0.1690983005625052 0  0.5809016994374947 0.1412214747707527 0  0.5587785252292473 0.1190983005625053 0  0.5309016994374948 0.1048943483704846 0  0.5 0.1 0  0.4690983005625052 0.1048943483704847 0  0.4412214747707527 0.1190983005625053 0  0.4190983005625052 0.1412214747707527 0  0.4048943483704846 0.1690983005625053 0  0.4 0.2 0  0.4048943483704847 0.2309016994374948 0  0.4190983005625052 0.2587785252292473 0  0.4412214747707527 0.2809016994374948 0  0.4690983005625053 0.2951056516295154 0  0.5 0.3 0  0.5309016994374948 0.2951056516295154 0  0.5587785252292473 0.2809016994374948 0  0.5809016994374947 0.2587785252292473 0  1.1 0 0  0 0.205 0  1.1 0.41 0  0.55 0 0  0.55 0.41 0  0.275 0 0  0.275 0.41 0  0.4125 0 0  0.4125 0.41 0  1.65 0.41 0  1.65 0 0  1.375 0 0  1.375 0.41 0  1.925 0 0  1.925 0.41 0  0.8250000000000001 0 0  0.8250000000000001 0.41 0  1.5125 0.205 0  1.7875 0.205 0  0.9625000000000001 0.205 0  1.2375 0.205 0  2.2 0.205 0  1.99375 0.2152743902439024 0  0.7815916808149406 0.1777281409168082 0  2.0625 0 0  0.6875 0.41 0  2.0625 0.41 0  2.2 0.3075 0  0.6875 0 0  1.7875 0.41 0  1.375 0.1486128048780488 0  1.5125 0 0  1.7875 0 0  1.5125 0.41 0  0.9625000000000001 0 0  0.9625000000000001 0.41 0  0.1375 0 0  0.1375 0.41 0  1.2375 0 0  1.1 0.1486128048780488 0  1.2375 0.41 0  1.65 0.1486128048780487 0  1.676715909090909 0.2793064024390244 0  1.126715909090909 0.2793064024390244 0  1.348284090909091 0.2793064024390244 0  0.7111837382351637 0.2844002487563727 0  1.894702181800738 0.1282910975492754 0  2.092797818199262 0.1282910975492754 0  1.85625 0.3075 0  0.89375 0.3075 0  0.89375 0.1025 0  0 0.3075 0  0 0.1025 0  2.099172119769978 0.25625 0  1.002356446954348 0.1010393851523063 0  1.99375 0.08395950269330846 0  1.459960956013612 0.3075 0  1.569025960719943 0.2986889805672169 0  1.03125 0.3278689922742084 0  0.3192727088781826 0.3079212096616675 0  1.959375 0.3126371951219512 0  1.749222215368287 0.1025 0  1.275777784631713 0.1025 0  2.2 0.1025 0  1.225938124459196 0.3075 0  1.550777784631713 0.1025 0  1.44375 0.07430640243902442 0  1.16875 0.07430640243902439 0  0.3437500000000001 0.07397709473011121 0  0.6911993143367559 0.1118123074367635 0  0.8057215702682121 0.2702269632945269 0  1.899250267340833 0.2229966846119207 0  0.8720458404074704 0.1913640704584042 0  0.8032958404074703 0.0888640704584041 0  0.6337831477789919 0.3348380330536306 0  0.1020898364287272 0.3140258291809757 0  1.766482954545455 0.2934032012195123 0  1.051658316544432 0.2265720188842194 0  0.2 0.3400647632937836 0  1.421109702350723 0.2261157654379721 0  0.61875 0 0  0.6878950265164463 0.199645915719726 0  0.098916018031319 0.09171660955420841 0  2.13125 0 0  2.118919042110979 0.3422084711244843 0  1.30625 0.41 0  0.20625 0 0  1.597888256393107 0.2173787389261347 0  0.7562500000000001 0.41 0  1.829299675393195 0.07400700849299596 0  1.71875 0.41 0  0.3225835293916391 0.1601701968669111 0  0.2606666398188512 0.0822552582932282 0  1.16875 0.41 0  2.038220665644273 0.332420740103091 0  0.176193934632343 0.0734896648625108 0  0.07390688010811153 0.1697064032433452 0  0.05452951551825875 0.25625 0  1.452769549894695 0.1548122580621249 0  1.369219062229598 0.07430640243902442 0  1.30625 0 0  1.075792183788687 0.07430640243902439 0  1.720943423819132 0.1714577452753128 0  1.157188124459196 0.205 0  1.304056576180868 0.1714577452753128 0  1.67579304192913 0.07430640243902437 0  0.7671326277666176 0.3352102652308781 0  0.3304630541488595 0.2342593631089261 0  1.209670467133757 0.136210026696477 0  0.7562500000000001 0 0  1.58125 0 0  0.9945036230615469 0.267761374151655 0  0.4812500000000001 0.41 0  0.06875000000000001 0.41 0  0 0.35875 0  0.9595378427479357 0.3376804103519943 0  0.34375 0.41 0  0.3897250743675729 0.3371889980614159 0  1.58125 0.41 0  1.631724228912893 0.3381867502687533 0  1.825608881788174 0.14499488549201 0  1.85625 0 0  1.44375 0 0  1.44375 0.41 0  1.85625 0.41 0  2.13125 0.41 0  0.89375 0 0  0.89375 0.41 0  0.20625 0.41 0  0.34375 0 0  0.4812500000000001 0 0  0.06875000000000001 0 0  0.61875 0.41 0  1.16875 0 0  1.03125 0.41 0  1.03125 0 0  1.71875 0 0  1.99375 0 0  1.99375 0.41 0  1.340625 0.3489494290853124 0  1.134375 0.3489494290853123 0  1.700180620188976 0.3438659752031281 0  1.033412357328477 0.1612902025713048 0  2.135782184673599 0.07126652247502523 0  1.668441847249787 0.2129203728327609 0  1.295782514339747 0.2378437748815763 0  0.6228574598132852 0.07671664390624158 0  1.409375 0.3520314716057996 0  2.129248544730567 0.1906135162504124 0  2.060771381434487 0.1989445750470348 0  2.013252586573865 0.1496169464686054 0  1.942766402200229 0.1734448904596831 0  1.895522487186454 0.06076163953489683 0  2.069553871656643 0.06605731020975725 0  1.274680914880868 0.3520219391081363 0  0.835055311278239 0.3424380136622334 0  0.7401021045332367 0.06543430142341211 0  1.614713220494657 0.09473434380863296 0  0.7520823699979313 0.2348229030472582 0  0.7043417970120415 0.3481429366232311 0  0.6546643048326494 0.2543538116156937 0  1.72990325744076 0.2380068107952482 0  1.356580098625191 0.2120393231351682 0  2.034370752044885 0.2668681600792073 0  1.51768709249349 0.3426260931494756 0  1.561883724969884 0.1650446847858835 0  0.2653439943239876 0.345171903972789 0  0.8330496081674507 0.1432136774486613 0  0.9281250000000001 0.05125000000000001 0  0.9330537010450736 0.2595558360668175 0  1.197344062229598 0.2523725417393646 0  1.804085235518364 0.3468178408964637 0  1.817887819205233 0.2589243285818559 0  1.905897727272727 0.3485060975609756 0  0.9485678863664097 0.1400383079249692 0  0.859375 0.05125 0  0 0.05125 0  0.4074403514301243 0.06423252630440013 0  0.5245798370136819 0.3551909831755992 0  0.7505241288352321 0.1253952068674773 0  0.2619923711861096 0.2853251789076993 0  0.8650169191207625 0.2527737409589524 0  1.192836486056382 0.3562350748565544 0  0.446875 0.3592802242693868 0  1.28257088594801 0.2944411014911587 0  1.474860187679412 0.2504218616229368 0  1.406767003493824 0.2829282258560709 0  1.845656689180403 0.1998310418452388 0  2.144958525570388 0.2909790873294231 0  2.2 0.15375 0  0.5843750000000001 0.3640402812892887 0  1.57794966442982 0.3540357145964566 0  0.6847665055715617 0.05605778745887328 0  0.637863756942103 0.1315837975700875 0  0.515625 0.04531250000000001 0  0.5718106469538725 0.0522410511374206 0  0.0496154796471391 0.333125 0  0.3662446794185922 0.2773760459259736 0  1.508991196088596 0.1421783375065625 0  0.09776612425612034 0.2204896805326566 0  1.50436820029908 0.06143401634903343 0  1.223857000523521 0.08235548624535324 0  1.153316824384777 0.1289850171317838 0  2.148922302309752 0.1258841779285271 0  1.621993280276081 0.2841214267927899 0  1.550118654119087 0.2461998729100966 0  1.327182649291491 0.1216967252533594 0  1.753125 0.04556020050186112 0  1.271875 0.04556020050186116 0  0.9824282234771738 0.05051969257615315 0  1.94956388244759 0.1180512551534177 0  1.949997712993411 0.04965831614304109 0  1.771961817615021 0.1530278789497521 0  1.909246823951428 0.2812757146784527 0  1.106872424375684 0.2277674570637181 0  1.948575539857022 0.2445328248721197 0  1.697271520964565 0.1233917627620729 0  1.065625 0.3689344961371042 0  1.085849084308977 0.3170853572226867 0  1.577403511714593 0.05463601888079143 0  0.05622663515370135 0.05493816910862376 0  1.751571320346033 0.3651102912045228 0  0.1583785085108421 0.2994699345738728 0  0.1455283439499995 0.3542795598723423 0  2.2 0.35875 0  0.4605652621775715 0.05075477778725031 0  0.1455852234589313 0.1166494778469164 0  0.3170871189130322 0.3624193665482365 0  1.466879772203159 0.3611261772912453 0  1.045297740100467 0.2779948725912803 0  1.990280163552011 0.3564754268533217 0  1.17471064520912 0.2990917256188288 0  0.8219886595034398 0.2165866596606327 0  0 0.25625 0  2.2 0.25625 0  2.2 0.05125 0  0 0.15375 0  1.853978576207987 0.35875 0  0.884510791938353 0.35875 0  1.000341183849677 0.3689344961371042 0  1.515638456102889 0.2882700110184686 0  0.09048297387599738 0.3637717362208066 0  2.150453692751374 0.2387066338105111 0  1.323782677156475 0.04897634338873398 0  1.409375 0.03715320121951221 0  1.406484531114799 0.1087852750766809 0  1.134375 0.03715320121951219 0  1.627401732573545 0.04552157221025036 0  0.2990651506063402 0.04656992046979862 0  0.3658138865510369 0.1250908110711949 0  2.045405893604797 0.1105340662939892 0  1.255408269734577 0.1577307500159216 0  0.7848198562432198 0.04176011905165711 0  2.028125 0.03707597992059326 0  0.04420832937638274 0.128125 0  0.1197849154434487 0.2663398672460083 0  0.2773440361767429 0.1325614896367195 0  1.248258025468107 0.2565907092181813 0  0.1300647302703173 0.0508462728378621 0  1.203125 0.03661323374043041 0  0.221416587416242 0.04909393590284095 0  2.072662025974815 0.2975086504196739 0  0.7309361959118756 0.1724117473133809 0  1.049057507569546 0.1150968098952652 0  1.029426696124534 0.0611707995214115 0  0.7592092911094858 0.2823604815974596 0  1.113520643506534 0.1031115419092917 0  1.887722846421017 0.1760882698830035 0  0.7976278545651526 0.3713969152554929 0  0.8476376957455005 0.2968044376629371 0  1.472640588990488 0.1118278026240017 0  1.865937103925594 0.2604137786483804 0  1.463913572748262 0.2030442564990043 0  0.2154602920799496 0.2951006307678045 0  1.376426316059077 0.3186741374914345 0  0.928125000000
[...]
<PointData  Scalars="f_43"> 
<DataArray  type="Float64"  Name="f_43"  format="ascii">-2.1920867259871168e-01  -2.4568631416551109e-01  -1.2995971481071773e-09  -6.6582005262819023e-09  -7.8918734684498937e-01  -3.7375374553643270e-01  -7.5928634309789045e-01  -1.7268872702851192e+00  -1.6149810502473818e+00  -4.1434351632001175e-02  8.2427795192364983e-01  -2.9501165194925749e-01  -1.5415354492126876e+00  -1.6259736387089796e+00  -8.3169023491326066e-01  -7.0502698137595077e-01  -7.4366481724038036e-01  -1.1905014983784274e+00  -1.4250825247834453e+00  -6.5570842651666239e-01  -3.2032480481621199e+00  -5.8717379331284247e+00  -2.4549783238880716e+00  -9.1136951587125070e-01  3.6303049216997667e-02  4.0681106375603390e-02  1.4466148544005142e-01  -5.2959042812752521e-01  -1.4931730406820465e+00  -2.9582384650518119e+00  -2.6567407784769359e+00  -2.0245433057241966e+00  -2.0440346999805454e+00  -1.2313656740577950e+00  -5.1664229094793412e-01  -1.8296786978763302e-02  -5.2439582398322204e-01  -1.3655028914406300e+00  -1.2784262182218704e+00  -6.2988656841410440e-01  -4.8839238713323530e-01  -1.2981453932406477e+00  -9.1630648070563592e-01  -2.6573630039310164e-01  -2.5930239153146051e-01  -3.8899784779054342e-01  -3.8869049315940074e-01  -1.2532615513090006e-01  -1.3094641849727687e-01  -6.6546807695394994e-01  -6.5535265663182218e-01  -3.2398535991435556e-01  -1.9398799501734756e-01  -5.8233829892973776e-01  -4.5424450302687280e-01  -3.7421901912597838e-09  -9.6776807165887269e-02  -6.4938734410025600e-01  -6.4244725931552782e-02  -8.0367886936195509e-01  -6.2095106531752625e-02  -2.6562245406685180e-09  -8.1127361616351978e-01  -1.9382474876444097e-01  -3.8931702058627454e-01  -3.3334143933611404e-01  -1.9437693631079844e-01  -3.3031745132549539e-01  -5.8542467878265148e-01  -5.8608331469037400e-01  -2.5432599084720076e-01  -1.8762301055239142e-01  -4.5316156976632160e-01  -5.1867542216968066e-01  -4.5292710587657325e-01  -2.5899375948020037e-01  -2.4633764606032960e-01  -5.0661713534411712e-01  -4.0180098495210959e-01  -6.8803410486298622e-01  -1.4319861848032675e-01  -4.9769815385289191e-02  -1.6176833943047533e-01  -6.1615475505181816e-01  -6.1650762655823754e-01  -2.5595740448455551e-01  -2.7164453700451996e-01  -4.7128179306866809e-02  -5.6488339036960356e-01  -9.6441428030566739e-02  -3.4862625545883480e-01  -2.9708179657726935e-01  -5.5168545843085337e-01  -3.9720419462079187e-01  -1.1352154617181838e-01  -2.1192688359534059e-01  -4.3642159339853193e-01  4.9696651826900247e-09  -4.6003903080776720e-01  -3.0588530439893735e-01  -3.5699701604177247e-01  -4.8601559731305199e-01  -7.1579439398166889e-01  -7.0975543191354462e-01  -6.4901976276158002e-01  -1.4135325143825409e-01  -6.2106079201445707e-01  -6.6332505804336150e-01  -8.8520601980464153e-01  -1.6476095732642446e-01  -2.0397117210486507e-01  -5.4146076955672962e-01  -4.1902601542295093e-01  -3.6729003481842271e-01  -1.0162549883029321e+00  -6.3094181779654324e-01  -1.9386281861799465e-01  -2.9491732024470429e-02  -3.7089127283595320e-02  -4.2060938711798385e-01  -4.6202080947478785e-01  -2.8358084907425529e-01  -7.1844650252255415e-01  -1.7358771582601495e-01  -2.2406019778580993e-01  -2.5793565763618626e-01  -6.1412461342350599e-01  -4.8755968308421355e-01  -7.5796081858088046e-02  -4.6390932269285218e-01  1.0941782061496680e-01  -4.8071001677772347e-02  -3.5241826434307977e-01  -3.9103318595854386e-01  -4.2508327543201962e-01  -5.2935278865795876e-01  -2.2543803437210538e-01  -4.9200108066223547e-01  -4.2286927574332828e-01  -2.4700184599197228e-01  -6.8650838543634951e-01  -1.6727268395661599e-01  -4.6723537970363088e-01  -7.1974090209309871e-01  -2.9444339075705034e-01  -5.6824277855186978e-01  -1.2904018223191864e+00  -8.6679743214034238e-02  -2.8804028226318384e-01  -5.8563229390689164e-01  -6.2689102924140117e-01  -7.3536954766325102e-01  -2.9217924763498543e-01  -2.6760949053439143e-01  -1.7586754711258887e-01  -1.6050840466660984e-01  -3.5405523545274897e-01  -3.5135778043886690e-01  -1.6140961454542757e-01  -3.1975450475638711e-02  -6.1992100316478183e-01  -6.1945120543706478e-01  -3.6700582234337609e-01  -8.3692139053077907e-01  -1.6700869756929286e+00  -1.1917083751301188e-01  -9.9040675253997723e-01  -4.8626396333970795e-01  -5.5198047211659118e-01  -5.6337210295343487e-01  -2.2753223056044877e-01  -9.6618408079365795e-02  -9.7647489425639583e-02  -4.0531131921908975e-01  -5.0310343181573247e-01  -2.3511044223822300e-01  -5.4986970868402130e-01  -2.8935337490834528e-02  -2.5025098987112965e-01  -4.2673362065433057e-01  -9.4284507651041416e-01  -3.7104420182149161e-01  -3.2978006755623096e-02  -6.5119532415686396e-02  -8.7363778227168093e-02  -1.2069073201659723e-01  -1.4316719647112133e-01  -6.0258535809380606e-02  -4.3724221251984613e-01  -6.4829201661090552e-01  -7.1372525327273539e-01  -2.7562060035719699e-01  -6.5290253724343383e-01  -7.4883536181365373e-01  -6.7500170914416247e-01  -2.2121233406588803e-01  -3.9792836504711360e-01  -7.7709488525599876e-02  -3.2162192928301064e-01  -3.0063546427091153e-01  -4.7732892960087109e-01  -6.3934166658789171e-01  -6.0197206063338238e-01  -5.9611731348654717e-01  -4.7330750027580626e-01  -1.8650019906890183e-01  -1.7975538918686282e-01  -1.3856681475555399e-01  -5.8941239275427626e-01  -6.3797021397715281e-01  -3.1498743928299411e-01  -1.3034165028901536e+00  -1.4396042478432054e+00  -6.7401102076530195e-01  -5.2224665187547681e-01  -6.2493811783177566e-01  -4.7602561988445335e-01  -1.2293241321228303e+00  -4.3312482057766977e-01  -3.4171957568938954e-01  -3.7394960008730549e-01  -1.6654542837548514e-01  -2.5571446507701351e-02  -3.7421901912597838e-09  -1.1209049244866951e+00  -2.9294466019749732e-01  -7.8095737969691781e-01  -7.4864481600313593e-01  -1.6331876970766461e+00  -1.2354500643738455e+00  -2.7296546433244678e-01  -2.9477704350973988e-01  -3.2575622703156643e-01  2.8067841257470982e-01  -3.2797208402340583e-01  -4.6063449915643756e-01  -4.9357931470789129e-01  -2.3584965201503553e-02  -2.7216444773417175e-01  -3.0611609860313299e-01  -4.1209802720342326e-01  -2.0957521028033319e-01  -4.3866973924540209e-01  -5.7477635847469166e-01  -1.1734700282834092e-01  -1.1683282851560618e-01  -2.0126887968523147e-01  -1.3684273194381211e-01  -5.1566034067746525e-01  -1.1818427666908556e-01  -2.3664342864673821e-01  -5.3610712727987497e-01  -5.2607411084493660e-01  -2.9302502379092776e-01  -2.1610616203759117e-01  -2.1080060088343480e-01  -3.8685451115086761e-01  -2.4778309670246365e-01  5.3605348614936471e-10  -1.8885310485626816e+00  -3.9011557197843927e-01  -5.2999414219177765e-01  -3.4518594418003679e-01  -5.4472392712368944e-01  -9.9397933626575549e-02  -4.8413451004856761e-01  -6.3782920047336567e-01  -1.0609283739281478e-01  -2.6562245406685180e-09  4.6938128520971275e-10  -1.0855199012804520e-01  -1.6301867416176313e-01  -6.2341433168278593e-01  -5.6675148767061978e-01  -3.2230297221390491e-01  -1.3659985187818249e-01  -2.3109165668492283e-02  -4.1382971825656567e-01  -3.7292607282475770e-01  -3.7446141411772016e-01  -5.0082684932490995e-01  -2.6935321873411183e-01  -6.6755502507900988e-01  -4.8793433852656370e-01  -7.1990096564990558e-02  -4.4580191430105243e-01  -6.8674110389653620e-01  -7.9830847830930668e-02  -1.8330986376839381e-01  -7.6772913839169246e-02  -4.4076022502380791e-01  -4.4926591454474296e-01  -2.5426315097979285e-01  -4.7055625606722834e-01  -5.4229173437664657e-01  -5.9587777835988252e-02  -6.5428691557986018e-01  -5.4260937701499301e-01  -5.5236190199010504e-01  -6.6926731475565115e-01  -5.1206976443304641e-01  -1.4663912114793146e-01  -6.7470365538821886e-01  -6.3624368536782383e-01  -3.4319046870646081e-01  -1.5713633370579982e-01  -3.4702172288069982e-01  -6.7483495639643420e-01  -3.8831477676037651e-01  -6.0151412067879151e-01  -1.0447679488849138e+00  -8.3361081146862470e-01  -7.5188311659585316e-01  -6.0133331888303976e-01  -5.6059176636232788e-01  -5.2810723781427826e-01  -6.0887829229992285e-01  -6.1667200312067760e-01  -6.3906473586870194e-01  -5.9523461695883639e-01  -2.2487344601109199e-01  -1.0318708996315669e+00  -2.0042939309195854e-01  -4.3179536888411592e-02  -3.7955422034909708e-01  -2.1603369339601353e-01  -8.5389718959834215e-02  -2.8120029029151650e-01  4.9224842742044153e-02  -1.8261476032685323e-01  -4.6531975085370531e-01  6.5538244164969547e-02  -9.8498785127969571e-02  -1.6891383552184263e-02  -4.2523798533284016e-02  -5.7964731632424174e-02  -7.6580402958484084e-01  -5.7241566505546304e-01  -6.5399140361625518e-01  -6.5837704428482102e-01  -6.1814843190124624e-01  -2.7650915456385194e-01  -4.3015526865237724e-01  -1.9098150836137379e-01  -1.4235970162341063e+00  -1.1039688990935813e-01  -9.1217153642161347e-02  -3.8540412159755627e-01  -2.9739430916275161e-01  -5.2867594606395907e-01  -8.9707597958122731e-01  -4.7309836182808535e-01  -3.3992535403764068e-01  -2.6770665352339756e-01  -3.0510026393517725e-01  -7.6179973573748250e-01  -6.5774127942724958e-01  -2.3915578885894015e-01  -2.3222072759058601e-01  -1.6711248518265439e-02  -1.7851541143459337e-02  -1.3355583716732988e-01  -2.6609742580928525e-01  -1.8896731014830789e-01  -1.5581756061103505e-01  -2.9977352533593582e-01  -1.2031604933012943e-01  -6.5649795934582000e-01  -7.6281675411273786e-01  -1.7648089350934804e-01  -2.1819075377763128e-01  -3.7653418275005918e-01  -2.5208699533784146e-01  -1.8033147596906790e-01  -5.9610375198772148e-01  -3.0401907649187315e-01  -6.6879712898278723e-02  -3.0454791498432754e-01  -4.5690640660516585e-01  -4.9341503342929333e-02  -3.4657954161375459e-01  -9.7564791721462607e-01  -5.2550971201614916e-01  -2.8733105445575241e-01  -7.5105049049414296e-01  -7.2198054669340439e-01  -7.8133880757401331e-01  -4.9827817405220165e-01  -5.0119268038659426e-01  -1.8214219474269409e-02  -1.5404634917719720e-01  -4.1482275512523398e-01  -1.7632927792177033e+00  -9.9121651575559189e-02  -1.4009642990846272e-01  -6.0160407273636840e-01  -1.6012896093859491e-01  -1.5341799632115238e-01  -1.2733819455240636e-01  -3.2492505139320588e-01  -2.2924750860430904e-01  -2.5233199627746011e-01  -2.5752592412364911e-01  -1.6535575477988335e-01  -1.1877523673825967e+00  -6.3597747846671804e-01  -2.4090397485258036e-01  -7.5892652591627044e-02  -5.6974060274721583e-01  -5.1965080993053137e-01  -3.7072490403050462e-01  -6.5937057696963308e-01  -1.1102822294215418e+00  -6.0423090898720455e-01  -6.1585463919319239e-01  -1.6932715298759196e-01  -1.0914010418193381e+00  -7.7815974894236084e-01  -8.0583935544784588e-02  -9.4075018076533534e-01  -1.9767071585610216e-01  -6.3099147795929211e-01  -5.2909532696980044e-01  -8.4781053300355080e-01  -3.3501155087085965e-01  -1.3880229974755127e+00  -3.6054818944466147e-02  -6.9514352927049672e-01  -7.8016658212529275e-02  -3.5640822271483502e-01  -3.2088735324641410e-01  -3.2384795691708973e-01  -6.6016659319548743e-01  -1.8194660444498892e-01  -3.1443934892140402e-01  -2.1294352864382690e-01  -4.3531586106358461e-01  -2.1993288820671938e-01  -4.2838006977161086e-01  -3.9209122712031669e-01  -3.9633681758388872e-01  -2.4202352854598655e-01  -4.0652624054566860e-01  -7.8805744027236155e-02  -1.0597163042148643e-01  -8.0516649514719041e-01  -4.5111500274969601e-01  -4.7510029072149768e-01  -6.3497016755811975e-01  -2.3935751772412081e-01  -2.8150459802925287e-01  -2.5055218026435455e-01  -1.8031432357680918e-01  -7.9549584467064716e-01  -2.0906981180254540e+00  -1.0427412187701988e+00  -3.3037280635616201e-01  -4.2409607462291449e-01  -2.6973716186076357e-01  -2.8474652902291220e-01  -3.1297915125149556e-01  -6.4597689573024841e-01  -1.7460334661350546e-01  -6.4118922615835294e-02  -8.1050362196915096e-02  -4.2000923431832299e-01  -4.2606880875109353e-02  -7.8442393701328428e-01  -5.8572243286289238e-01  -6.4687550616203615e-01  -3.8756307303048229e-02  -1.7102671814820017e-02  -2.0135406412299486e-01  -3.0902466026577713e-01  -6.4657487464805175e-01  -3.7345186607754038e-01  -1.3149830246718024e+00  -5.2080219127787919e-01  -1.6028873270567612e-02  -3.6995684567055542e-02  -1.1406498220933134e-01  -4.1340382007397730e-02  -4.7033396926253218e-01  -1.6033376072653452e-01  -1.8696100766412205e-01  -5.4106989299718755e-01  -5.1432415575417745e-01  -5.7111154580773182e-01  -5.5411695923094328e-01  -6.2142020718024626e-01  -5.9921939203262053e-01  4.1845120472957720e-01  -5.6679062955832704e-01  -1.8793688322457447e-01  -4.9056914495964393e-01  -4.9957462138166719e-01  -4.2103108971628667e-01  -3.9988663141861486e-01  -3.8541407291418073e-01  -5.0004595164415455e-01  -3.6224019381946676e-01  -1.5207733599505788e+00  -1.4680916956919423e+00  -3.6334794516384085e-02  -4.7905983451147915e-01  -1.6247792379929910e-01  -4.5412236065826111e-01  -5.6109197669094391e-01  -5.0259323277158996e-01  -3.7182119025843818e-01  -2.4108312969332665e-01  -9.6934787073645057e-02  -8.0007966671661004e-02  -1.1282321892131764e-01  -4.3739430403207336e-01  -5.0975186633067471e-01  -4.8565612398867530e-01  -4.0826371522953842e-01  -1.5031396314819097e-02  -4.7196490474920881e-02  -5.0083955040407602e-01  -3.7095356274824148e-01  -3.4165924417771876e-01  -2.0951996568637604e-01  -5.3973270776566862e-01  -2.0943565053067975e-01  -6.1857699130545085e-01  -6.0657854114747656e-01  -3.7438140645593448e-01  -1.5143623683993704e-02  -1.1467117946233039e+00  -5.7564068824441905e-01  -1.2633935986901615e-01  -4.3706076621050549e-01  -1.1658689030325116e+00  -8.7752425674786261e-01  -6.8650227944868647e-01  -6.8553739789783452e-01  -7.1371743479593919e-01  -5.3524790259475552e-01  -1.5602780162214429e+00  -8.9775211586196213e-01  -1.1115418112893687e+00  -6.3990674971824080e-01  -4.6840320468732910e-01  -2.7074204911587074e-01  -5.6607026607548283e-01  -1.1775474886547245e-01  -4.3681877770531924e-01  -8.0438425103951119e-02  -1.1453539389303449e-01  -2.2613072709947127e-01  -8.8450131846262547e-02  -6.5013337374564206e-01  -6.1126062955612781e-01  -3.5904732680417317e-01  -4.8546068582587404e-01  -6.3141444305941308e-01  -1.1967675653089742e+00  -7.3105661698661395e-01  -6.0557905882140295e-01  -5.8352860837883724e-01  -5.3507664808911326e-01  -5.4394489027694015e-01  -5.5678748903227882e-01  -4.0860991826818821e-01  -4.1897746277666892e-01  -3.2804160032033752e-01  -4.8715592015881393e-01  -3.1162260297678002e-01  -3.3239324764546280e-01  -5.7367667788691079e-01  -1.3439735213272955e-01  -6.7681031552303317e-01  -7.0392819147053109e-01  -7.9928668465474739e-01  -3.9218918657086260e-01  -6.8583796730390567e-01  -3.5688472325535314e-01  -3.6274552193597648e-01  -2.3466946020728061e-01  -1.4488085268157297e-01  -7.7669651277490337e-01  -5.0749947021355679e-01  -2.3220715696599203e-01  -1.7424033170848469e-01  -2.5034755412617388e-01  -4.1833509668438296e-01  -1.2921133015102462e-01  -3.3275668685458271e-01  -4.1591106365190297e-02  -2.8217932088432779e-01  -6.0475121194896764e-01  -6.3133311696335431e-02  -5.2094558263564447e-02  -5.8704182629391133e-01  -3.9464033639796015e-01  3.8846211877631230e-02  -4.5113591840548012e-01  -1.2940800345610115e-01  -1.3405067547969141e-01  -1.6660450695488177e-01  -5.2916500579772138e-02  -7.5251544194352746e-02  -1.8560759783891456e-01  -5.2665562235720020e-01  -4.9666112029743870e-01  -4.7082669773709235e-01  -6.1625088494996094e-01  -1.7239089580850039e-01  -2.3644712278520141e-01  -1.6802413311960399e-01  -5.5105761594066260e-01  -1.1185081498119415e-01  -1.0984767402241093e+00  -1.4730948446412897e-02  -6.2941952307247395e-01  -1.7909513194359455e-01  -2.9690545036424443e-01  -2.9126622607521313e-01  -2.6244021949475949e-01  -1.3755392469905922e-01  -7.6719862431687158e-01  -6.5435455202221349e-01  -6.6234917783336422e-01  -6.7084352220893650e-01  -2.8992814491099983e-01  -2.9620522009768130e-01  -6.8925430688133982e-01  -6.2721832805892652e-01  -5.9428635108095096e-01  -4.9195526890552793e-01  -5.8006827988369292e-01  -2.8372768826785533e-01  -1.7156814509530408e-01  -3.1420228096983710e-01  -4.0482549945504193e-01  -2.5057580960405077e+00  -1.5280242389223164e-01  -5.8786750383871766e-01  -1.2265840652277252e-01  -6.5252723022554693e-01  -4.5848432425968438e-01  -2.9950903045384619e-01  -1.8289744138927730e-01  -4.7352075898571683e-01  2.3273864929167168e-01  -2.1309712661921734e-01  -4.2647765814779709e-01  -4.4391763405764861e-01  -4.6217545859325604e-01  -4.8357343653336410e-01  -5.5829913655539110e-01  -2.5292010435308926e-01  -3.4240379125166959e-01  -6.5075119820495153e-01  -6.4532374530918135e-01  -7.1991050667884871e-01  -1.9126786526699208e-01  -1.7113373054615508e-01  -4.9796463488141658e-02  -3.3218181171425720e-01  -6.2223319526541998e-01  -6.3705321971981566e-01  -6.2115678418982934e-01  -1.0892820788463387e-01  -5.9466844431834265e-01  -2.7141830207735068e-01  -2.6737560475236150e-01  -3.1086648197627564e-01  -1.4112739407003588e-01  -4.2875448102764985e-01  -4.0833443544893633e-01  -1.0124725298526661e-01  -1.5529344734178447e+00  -6.2669825311617089e-01  -3.0595995724889602e-01  -1.0316016548149356e+00  -9.8685793428030177e-01  -8.3966568565065947e-01  -5.2583614051767746e-01  -1.0287113483079137e-01  -5.8304836200062404e-01  -4.0308209005357759e-01  -6.5835314988560911e-01  -4.4548822375822439e-01  -1.7173302228413659e-01  -1.2864097384781044e+00  -1.6928366208448669e+00  -1.4103865360136181e-01  -2.4629657557405787e-02  -4.5744505981733533e-02  -1.7472358489965487e-01  -4.6062225892117376e-01  -2.6868627379117310e-01  -1.5122225330731226e-01  -9.1286050165704768e-01  -3.0491285172082280e-09  -3.1594838316538054e-01  -4.9502566452109714e-01  -2.5975958775171210e-01  -1.5920241203620216e-02  -6.4533588960138111e-01  -6.3600410738512470e-02  -1.8243417233537770e-01  -2.3594787794543562e-01  -1.4301002997880086e-01  -5.7160913372863575e-01  -3.8093674209053024e-01  -3.5293139837572635e-01  -3.4259745358693805e-01  -3.3276669974257855e-01  -3.5934927350429968e-01  -1.5502241427307797e-01  -7.4077443094415973e-01  -6.7160916951197591e-01  -1.1950976472171277e+00  -8.0774946616790810e-01  -3.8772183953410516e-01  -3.6811130641782208e-01  -1.5240315059914250e-01  -2.5888988549147967e-09  -4.8838614210482606e-01  -7.2240537730454679e-01  -3.4769361219001615e-01  -4.4793480525971568e-01  -4.3495155390132184e-01  -4.3567595356075473e-01  -4.6535949642015451e-01  -2.2100642887859312e-01  -5.1274420259863729e-01  -8.0367633354470702e-01  -9.0761231025206876e-02  -6.6406623376570895e-01  -3.3923720155659065e-01  -2.6402893745773631e-01  -2.0457509736406429e-01  -2.0279564677701112e-01  -1.2252102096455830e+00  -2.9373908305640899e-02  -3.2587193176279991e-02  -1.3399339929380237e-02  -5.5151665919182291e-01  -1.4124098109205707e+00  -1.4194516873801177e+00  -1.5415380970326933e-01  -1.0042173717193560e-01  -5.1664706842389141e-01  -8.4283676648935113e-01  -7.1421937605191943e-01  -6.3511328814051715e-01  -1.2442224378961362e+00  -4.2749565833256731e-01  -2.1829586693496711e-01  -1.9973824377137420e-01  -5.6521438755827480e-01  -5.8334074051092966e-01  -2.8610468313158999e-01  -8.3998063502137932e-01  -7.1749151451216153e-01  -1.6536616004900451e+00  -4.8041771758574964e-01  -5.0572480027464972e-01  -4.0702984476483489e-01  -4.6424401415057037e-01  -7.0344525514079981e-01  -4.3205881354584985e-01  -5.3243229644508427e-01  -2.4189106702794883e-01  -6.3327268543568127e-01  -6.0622136917118208e-01  -5.1902550685916926e-01  -7.4803530421899034e-01  -3.7421901912597838e-09  2.5829407778539076e-01  1.1348909330770933e-01  -4.0789604816491976e-01  -2.9354326898495420e-01  -2.7880383245689694e-01  -6.4255550297360142e-01  -6.2958080854865139e-01  -3.4114167414760693e-01  -1.3120072705062069e-01  -2.7092825136766335e-01  -2.9428198130161387e-01  -1.7401902487831031e-01  -1.2156637620656725e-01  -5.1631526020397278e-02  -3.1617496573993198e-01  -2.9929976666515623e-01  -2.9421324064340121e-01  -4.0200935948540389e-01  -2.6858788233960579e-01  -1.0493135029795300e+00  -5.1392149871330994e-01  -4.7321127910388433e-01  -4.1156425828476262e-01  -3.028