<?xml version="1.0"?>
<VTKFile type="UnstructuredGrid"  version="0.1"  >
<UnstructuredGrid>
<Piece  NumberOfPoints="2362" NumberOfCells="4391">
<Points>
<DataArray  type="Float64"  NumberOfComponents="3"  format="ascii">0 0.41 0  0 0 0  2.2 0 0  2.2 0.41 0  0.2404508497187474 0.2293892626146237 0  0.25 0.2 0  0.2404508497187474 0.1706107373853764 0  0.2154508497187474 0.1524471741852423 0  0.1845491502812526 0.1524471741852423 0  0.1595491502812526 0.1706107373853764 0  0.15 0.2 0  0.1595491502812526 0.2293892626146237 0  0.1845491502812527 0.2475528258147577 0  0.2154508497187474 0.2475528258147577 0  0.5951056516295153 0.2309016994374948 0  0.6 0.2 0  0.5951056516295153 0.1690983005625052 0  0.5809016994374947 0.1412214747707527 0  0.5587785252292473 0.1190983005625053 0  0.5309016994374948 0.1048943483704846 0  0.5 0.1 0  0.4690983005625052 0.1048943483704847 0  0.4412214747707527 0.1190983005625053 0  0.4190983005625052 0.1412214747707527 0  0.4048943483704846 0.1690983005625053 0  0.4 0.2 0  0.4048943483704847 0.2309016994374948 0  0.4190983005625052 0.2587785252292473 0  0.4412214747707527 0.2809016994374948 0  0.4690983005625053 0.2951056516295154 0  0.5 0.3 0  0.5309016994374948 0.2951056516295154 0  0.5587785252292473 0.2809016994374948 0  0.5809016994374947 0.2587785252292473 0  1.1 0 0  0 0.205 0  1.1 0.41 0  0.55 0 0  0.55 0.41 0  0.275 0 0  0.275 0.41 0  0.4125 0 0  0.4125 0.41 0  1.65 0.41 0  1.65 0 0  1.375 0 0  1.375 0.41 0  1.925 0 0  1.925 0.41 0  0.8250000000000001 0 0  0.8250000000000001 0.41 0  1.5125 0.205 0  1.7875 0.205 0  0.9625000000000001 0.205 0  1.2375 0.205 0  2.2 0.205 0  1.99375 0.2152743902439024 0  0.7815916808149406 0.1777281409168082 0  2.0625 0 0  0.6875 0.41 0  2.0625 0.41 0  2.2 0.3075 0  0.6875 0 0  1.7875 0.41 0  1.375 0.1486128048780488 0  1.5125 0 0  1.7875 0 0  1.5125 0.41 0  0.9625000000000001 0 0  0.9625000000000001 0.41 0  0.1375 0 0  0.1375 0.41 0  1.2375 0 0  1.1 0.1486128048780488 0  1.2375 0.41 0  1.65 0.1486128048780487 0  1.676715909090909 0.2793064024390244 0  1.126715909090909 0.2793064024390244 0  1.348284090909091 0.2793064024390244 0  0.7111837382351637 0.2844002487563727 0  1.894702181800738 0.1282910975492754 0  2.092797818199262 0.1282910975492754 0  1.85625 0.3075 0  0.89375 0.3075 0  0.89375 0.1025 0  0 0.3075 0  0 0.1025 0  2.099172119769978 0.25625 0  1.002356446954348 0.1010393851523063 0  1.99375 0.08395950269330846 0  1.459960956013612 0.3075 0  1.569025960719943 0.2986889805672169 0  1.03125 0.3278689922742084 0  0.3192727088781826 0.3079212096616675 0  1.959375 0.3126371951219512 0  1.749222215368287 0.1025 0  1.275777784631713 0.1025 0  2.2 0.1025 0  1.225938124459196 0.3075 0  1.550777784631713 0.1025 0  1.44375 0.07430640243902442 0  1.16875 0.07430640243902439 0  0.3437500000000001 0.07397709473011121 0  0.6911993143367559 0.1118123074367635 0  0.8057215702682121 0.2702269632945269 0  1.899250267340833 0.2229966846119207 0  0.8720458404074704 0.1913640704584042 0  0.8032958404074703 0.0888640704584041 0  0.6337831477789919 0.3348380330536306 0  0.1020898364287272 0.3140258291809757 0  1.766482954545455 0.2934032012195123 0  1.051658316544432 0.2265720188842194 0  0.2 0.3400647632937836 0  1.421109702350723 0.2261157654379721 0  0.61875 0 0  0.6878950265164463 0.199645915719726 0  0.098916018031319 0.09171660955420841 0  2.13125 0 0  2.118919042110979 0.3422084711244843 0  1.30625 0.41 0  0.20625 0 0  1.597888256393107 0.2173787389261347 0  0.7562500000000001 0.41 0  1.829299675393195 0.07400700849299596 0  1.71875 0.41 0  0.3225835293916391 0.1601701968669111 0  0.2606666398188512 0.0822552582932282 0  1.16875 0.41 0  2.038220665644273 0.332420740103091 0  0.176193934632343 0.0734896648625108 0  0.07390688010811153 0.1697064032433452 0  0.05452951551825875 0.25625 0  1.452769549894695 0.1548122580621249 0  1.369219062229598 0.07430640243902442 0  1.30625 0 0  1.075792183788687 0.07430640243902439 0  1.720943423819132 0.1714577452753128 0  1.157188124459196 0.205 0  1.304056576180868 0.1714577452753128 0  1.67579304192913 0.07430640243902437 0  0.7671326277666176 0.3352102652308781 0  0.3304630541488595 0.2342593631089261 0  1.209670467133757 0.136210026696477 0  0.7562500000000001 0 0  1.58125 0 0  0.9945036230615469 0.267761374151655 0  0.4812500000000001 0.41 0  0.06875000000000001 0.41 0  0 0.35875 0  0.9595378427479357 0.3376804103519943 0  0.34375 0.41 0  0.3897250743675729 0.3371889980614159 0  1.58125 0.41 0  1.631724228912893 0.3381867502687533 0  1.825608881788174 0.14499488549201 0  1.85625 0 0  1.44375 0 0  1.44375 0.41 0  1.85625 0.41 0  2.13125 0.41 0  0.89375 0 0  0.89375 0.41 0  0.20625 0.41 0  0.34375 0 0  0.4812500000000001 0 0  0.06875000000000001 0 0  0.61875 0.41 0  1.16875 0 0  1.03125 0.41 0  1.03125 0 0  1.71875 0 0  1.99375 0 0  1.99375 0.41 0  1.340625 0.3489494290853124 0  1.134375 0.3489494290853123 0  1.700180620188976 0.3438659752031281 0  1.033412357328477 0.1612902025713048 0  2.135782184673599 0.07126652247502523 0  1.668441847249787 0.2129203728327609 0  1.295782514339747 0.2378437748815763 0  0.6228574598132852 0.07671664390624158 0  1.409375 0.3520314716057996 0  2.129248544730567 0.1906135162504124 0  2.060771381434487 0.1989445750470348 0  2.013252586573865 0.1496169464686054 0  1.942766402200229 0.1734448904596831 0  1.895522487186454 0.06076163953489683 0  2.069553871656643 0.06605731020975725 0  1.274680914880868 0.3520219391081363 0  0.835055311278239 0.3424380136622334 0  0.7401021045332367 0.06543430142341211 0  1.614713220494657 0.09473434380863296 0  0.7520823699979313 0.2348229030472582 0  0.7043417970120415 0.3481429366232311 0  0.6546643048326494 0.2543538116156937 0  1.72990325744076 0.2380068107952482 0  1.356580098625191 0.2120393231351682 0  2.034370752044885 0.2668681600792073 0  1.51768709249349 0.3426260931494756 0  1.561883724969884 0.1650446847858835 0  0.2653439943239876 0.345171903972789 0  0.8330496081674507 0.1432136774486613 0  0.9281250000000001 0.05125000000000001 0  0.9330537010450736 0.2595558360668175 0  1.197344062229598 0.2523725417393646 0  1.804085235518364 0.3468178408964637 0  1.817887819205233 0.2589243285818559 0  1.905897727272727 0.3485060975609756 0  0.9485678863664097 0.1400383079249692 0  0.859375 0.05125 0  0 0.05125 0  0.4074403514301243 0.06423252630440013 0  0.5245798370136819 0.3551909831755992 0  0.7505241288352321 0.1253952068674773 0  0.2619923711861096 0.2853251789076993 0  0.8650169191207625 0.2527737409589524 0  1.192836486056382 0.3562350748565544 0  0.446875 0.3592802242693868 0  1.28257088594801 0.2944411014911587 0  1.474860187679412 0.2504218616229368 0  1.406767003493824 0.2829282258560709 0  1.845656689180403 0.1998310418452388 0  2.144958525570388 0.2909790873294231 0  2.2 0.15375 0  0.5843750000000001 0.3640402812892887 0  1.57794966442982 0.3540357145964566 0  0.6847665055715617 0.05605778745887328 0  0.637863756942103 0.1315837975700875 0  0.515625 0.04531250000000001 0  0.5718106469538725 0.0522410511374206 0  0.0496154796471391 0.333125 0  0.3662446794185922 0.2773760459259736 0  1.508991196088596 0.1421783375065625 0  0.09776612425612034 0.2204896805326566 0  1.50436820029908 0.06143401634903343 0  1.223857000523521 0.08235548624535324 0  1.153316824384777 0.1289850171317838 0  2.148922302309752 0.1258841779285271 0  1.621993280276081 0.2841214267927899 0  1.550118654119087 0.2461998729100966 0  1.327182649291491 0.1216967252533594 0  1.753125 0.04556020050186112 0  1.271875 0.04556020050186116 0  0.9824282234771738 0.05051969257615315 0  1.94956388244759 0.1180512551534177 0  1.949997712993411 0.04965831614304109 0  1.771961817615021 0.1530278789497521 0  1.909246823951428 0.2812757146784527 0  1.106872424375684 0.2277674570637181 0  1.948575539857022 0.2445328248721197 0  1.697271520964565 0.1233917627620729 0  1.065625 0.3689344961371042 0  1.085849084308977 0.3170853572226867 0  1.577403511714593 0.05463601888079143 0  0.05622663515370135 0.05493816910862376 0  1.751571320346033 0.3651102912045228 0  0.1583785085108421 0.2994699345738728 0  0.1455283439499995 0.3542795598723423 0  2.2 0.35875 0  0.4605652621775715 0.05075477778725031 0  0.1455852234589313 0.1166494778469164 0  0.3170871189130322 0.3624193665482365 0  1.466879772203159 0.3611261772912453 0  1.045297740100467 0.2779948725912803 0  1.990280163552011 0.3564754268533217 0  1.17471064520912 0.2990917256188288 0  0.8219886595034398 0.2165866596606327 0  0 0.25625 0  2.2 0.25625 0  2.2 0.05125 0  0 0.15375 0  1.853978576207987 0.35875 0  0.884510791938353 0.35875 0  1.000341183849677 0.3689344961371042 0  1.515638456102889 0.2882700110184686 0  0.09048297387599738 0.3637717362208066 0  2.150453692751374 0.2387066338105111 0  1.323782677156475 0.04897634338873398 0  1.409375 0.03715320121951221 0  1.406484531114799 0.1087852750766809 0  1.134375 0.03715320121951219 0  1.627401732573545 0.04552157221025036 0  0.2990651506063402 0.04656992046979862 0  0.3658138865510369 0.1250908110711949 0  2.045405893604797 0.1105340662939892 0  1.255408269734577 0.1577307500159216 0  0.7848198562432198 0.04176011905165711 0  2.028125 0.03707597992059326 0  0.04420832937638274 0.128125 0  0.1197849154434487 0.2663398672460083 0  0.2773440361767429 0.1325614896367195 0  1.248258025468107 0.2565907092181813 0  0.1300647302703173 0.0508462728378621 0  1.203125 0.03661323374043041 0  0.221416587416242 0.04909393590284095 0  2.072662025974815 0.2975086504196739 0  0.7309361959118756 0.1724117473133809 0  1.049057507569546 0.1150968098952652 0  1.029426696124534 0.0611707995214115 0  0.7592092911094858 0.2823604815974596 0  1.113520643506534 0.1031115419092917 0  1.887722846421017 0.1760882698830035 0  0.7976278545651526 0.3713969152554929 0  0.8476376957455005 0.2968044376629371 0  1.472640588990488 0.1118278026240017 0  1.865937103925594 0.2604137786483804 0  1.463913572748262 0.2030442564990043 0  0.2154602920799496 0.2951006307678045 0  1.376426316059077 0.3186741374914345 0  0.928125000000
[...]
<PointData  Scalars="f_43"> 
<DataArray  type="Float64"  Name="f_43"  format="ascii">5.4957537074962121e-02  1.2730466540848021e-01  1.3430240606271759e-09  2.1524240855339672e-09  -7.2169618007136749e-01  -6.4893757681104747e-01  -6.2750313734498053e-01  -8.0287788990890774e-01  -9.5827897707361864e-01  6.4106590764562799e-01  1.6608080451497995e+00  8.5856426601154615e-03  -1.4414195721991399e+00  -8.3145484987670681e-01  -1.1424721505586131e+00  -1.2184272006185053e+00  -1.3526142557168501e+00  -1.6538687041334192e+00  -1.5105721188050243e+00  -6.8555462293377201e-01  -4.4973886593507952e+00  -6.4295796758302828e+00  -2.6919524981697784e+00  -1.8202591977468112e+00  -1.7461257620782471e+00  -9.6129013008970665e-01  -6.4781856807482940e-01  3.8167708861892913e-01  -1.0407735693128778e-01  -3.1606802509248961e+00  -2.7093114363599566e+00  -1.6921639311411927e+00  -1.3469007238572053e+00  -1.1329610735796374e+00  -3.9679478809328567e-01  4.2795746289270720e-01  -3.9914961259344789e-01  -1.8689854778219512e+00  -1.1840047006832786e+00  -5.1070513422733321e-01  -4.5067276152615826e-01  -1.6705022385400012e+00  -9.1521093437321976e-01  -2.0036633180583321e-01  -1.9805596354657856e-01  -2.9911289534005020e-01  -2.9788615644614941e-01  -9.9259730429016535e-02  -1.0132979583294614e-01  -6.8493415308223715e-01  -7.6071584033553630e-01  -2.4859530670798982e-01  -1.4909566648531095e-01  -4.3878457325409070e-01  -3.4812073174350977e-01  -2.5942582832650952e-09  -7.4533716810781636e-02  -4.5710698741877359e-01  -4.9278468021130090e-02  -9.6597862354387387e-01  -4.9454947901151271e-02  -1.5331426526124526e-09  -1.2828548448765662e+00  -1.4907919211024817e-01  -2.9836387790339564e-01  -2.4906687118256424e-01  -1.4908278520609941e-01  -2.4853168723508251e-01  -4.5767882657098757e-01  -4.6218691905441611e-01  3.1176479866733348e-02  -1.9196794907504137e-02  -3.4718677959375860e-01  -3.9771891185788227e-01  -3.4755173610094603e-01  -1.9893558402705913e-01  -1.8921540203371312e-01  -3.8848256443418627e-01  -3.0798844129664898e-01  -1.2096973803334239e+00  -1.1026349610930811e-01  -3.8644290107667574e-02  -1.2431876217058506e-01  -5.0366872426903131e-01  -4.9668201519391075e-01  1.5553425912640315e-01  2.3085321604148656e-01  -3.6437443041196053e-02  -4.3627065494190631e-01  -7.4399075661978772e-02  -2.6751987510552511e-01  -2.2812855594555284e-01  -4.2569920111102705e-01  -8.2883870050176467e-01  -8.7028422221476789e-02  -1.6293869913013942e-01  -3.3420756555923847e-01  2.9004476407040524e-09  -3.5256896688539446e-01  -2.3477698836096511e-01  -2.7362287965052745e-01  -3.7271853053399501e-01  -9.5345824876382301e-01  -1.2003233566811764e+00  -5.9001724968899638e-01  -1.0871236469587130e-01  -4.3205193200987430e-01  -6.8000059484022812e-01  -1.0803248660220575e+00  1.0047017923215266e-01  -1.5671454019319328e-01  -4.1439016763694964e-01  -2.3968395541473458e-01  -2.8166674307880468e-01  -1.5596306882085829e+00  -1.2533811422969365e+00  1.7218421599897518e-01  -2.4077904627383278e-02  -2.9310893613804085e-02  -3.2138728261113186e-01  -1.8024316006494068e-01  -2.1773776946639048e-01  -9.0164605056744063e-01  -1.3375412645987877e-01  -1.7287759770184277e-01  -6.8878526294799680e-01  -5.3148097014658724e-01  -3.7297888421065500e-01  -5.8465334109038841e-02  -1.2425328800650608e-01  5.7587152866891167e-01  3.6819518740602281e-01  -2.7022713599148296e-01  -3.0045955546994363e-01  -3.2443091484754455e-01  -4.0735306899943657e-01  -1.7322589067890390e-01  -3.7711739560665908e-01  -3.2402052009972798e-01  -1.8971990006558492e-01  -8.7029490200058524e-01  -1.3627780433596810e+00  -3.5806700578524825e-01  -1.0053774899321211e+00  -2.2455037404503195e-01  -4.3507193926485238e-01  -1.1522071141946315e+00  4.5055014517231110e-02  6.6844839269369294e-02  -4.6189202333835144e-01  -6.9236867889470433e-01  -7.4464205831986474e-01  -2.2327461334647908e-01  -2.0554342167126197e-01  -1.3526615454633845e-01  -1.2393058864468007e-01  -2.7326556614184472e-01  -2.7299648410625771e-01  -1.2339383208254666e-01  -2.5341101237192895e-02  -5.2084325197921033e-01  -5.5023446267181952e-01  -1.9724709778578936e-01  -9.7566607902106939e-01  -2.0719504791253702e+00  1.1011659401447174e-01  -1.0631582690917092e+00  -3.7306616782849039e-01  -4.2610677602609176e-01  -4.2660077577119004e-01  -1.7343356849089708e-01  -7.5289871852712117e-02  -7.3400751898193423e-02  -3.1083399831206626e-01  -3.8607285935793484e-01  -1.8072989091941841e-01  -4.2102896279631041e-01  -2.2963395947443239e-02  -1.9221949232788446e-01  -3.2703541852185047e-01  -1.6038605220014823e+00  -2.8576457476390343e-01  -2.5536444977628227e-02  -5.0277882384315242e-02  -6.7443308906401794e-02  -9.2937612105909617e-02  -1.0996678310109642e-01  -4.6943848555574097e-02  -3.3486123415235408e-01  -7.0160945881996506e-01  -1.0396864786806166e+00  -2.1172165899363218e-01  -9.4178362211631728e-01  -9.7393128946075624e-01  -1.1872717516561757e+00  -1.6995825627154720e-01  -3.0501355569881122e-01  -5.9864436449587291e-02  -2.4661243852984199e-01  -2.3075938667601836e-01  -4.8746112043038847e-01  -4.7561068798830825e-01  -4.8232599780228141e-01  -4.5162261485091509e-01  -3.6279115262887129e-01  -1.4315405006917528e-01  -1.3815076212766370e-01  -1.0644425836904478e-01  -4.5206485049555661e-01  -5.7560035890981887e-01  1.4156649858827722e-01  -1.8113153352886893e+00  -1.2934741332379154e+00  -7.5765487799512343e-01  -6.8862780112994870e-01  -4.5284616290918017e-01  -3.6484047992020585e-01  -1.1026167852148974e+00  -3.3189308586697508e-01  -2.6217642278190340e-01  -2.8678629870062161e-01  -1.2806213108983511e-01  -1.9889719138178424e-02  -2.5942582832650952e-09  -1.1401629127727388e+00  -2.2486122807041697e-01  -1.2611483453193935e+00  -1.4740496341586424e+00  -2.1956866772757357e+00  -1.8182038448771660e+00  9.2289077973901915e-02  -8.6079193802460796e-01  -2.4990643130514253e-01  7.7609083992802685e-01  -2.5156645590031212e-01  -3.5288304202263410e-01  -3.7844316572192277e-01  -1.8394307591974867e-02  -2.0901645600707741e-01  -2.3498409698270042e-01  -3.1566290900603922e-01  -1.6135384480965553e-01  -3.3560766804757480e-01  -4.4799570482309270e-01  -9.0442960757737403e-02  -9.0396759073032185e-02  -1.5471252265189778e-01  -1.0514748972928341e-01  -3.9519587311328297e-01  -9.0885895221637078e-02  -1.8181467217120079e-01  -4.1187883896933147e-01  -4.0403460911128347e-01  -2.2524349520318376e-01  1.3371847804076489e-01  -1.6200665861338634e-01  -1.3060652007697318e-01  -4.6913001843241237e-02  9.5885618432959203e-10  -2.4294811544287906e+00  4.4039903528216087e-02  -6.2764131108832200e-01  -2.6505293933444946e-01  -4.1801263015935775e-01  -7.5864342263314608e-02  -3.7117518920953135e-01  -4.2016375934035416e-01  3.1810482719820182e-01  -1.5331426526124526e-09  8.8661002568744014e-10  3.7196745021597993e-01  -1.2510941151205879e-01  -5.6486927570523626e-01  -4.4049098514547447e-01  -2.4739071132750912e-01  3.6520804863954509e-02  -1.7900335973074166e-02  -3.1690379406388924e-01  -2.8596681646141098e-01  -2.8698458360590101e-01  -3.8496911547635349e-01  -2.0737459938047817e-01  -6.6297276400815175e-01  -9.8753801785662310e-01  -5.5754440053755940e-02  -3.4158367861432426e-01  -8.6736880815249351e-01  -6.1903159477126435e-02  3.1906643641717869e-01  3.0996473019432730e-01  -5.9367778263967552e-01  -3.4430547605699602e-01  4.2290765461118644e-02  -3.6028560412336930e-01  -2.8650116480025045e-01  -4.6023274068001496e-02  -8.4927436406156376e-01  -4.1695686623470313e-01  -4.2599366907925468e-01  -9.1337530386507959e-01  -3.9300988408883508e-01  -1.1282489144021886e-01  -8.5796566289578668e-01  -5.4504854614054676e-01  -2.6311017200748327e-01  -1.2078404596240744e-01  -2.6616935495458705e-01  -5.1640073179721857e-01  -2.9778854426967305e-01  -4.9679721350265815e-01  -1.1432837277813213e+00  -9.9620108267826835e-01  -1.0906220605444970e+00  -4.4638914450994072e-01  -4.2730860275302274e-01  -4.0450759362561312e-01  -4.4120725925442023e-01  -4.6405811709164935e-01  -5.5610854954436928e-01  -4.6799790242015138e-01  -1.7276076222195938e-01  -1.2951304313666685e+00  -1.5401929812245910e-01  -3.3851499319346390e-02  -2.9097081231417049e-01  -9.2134323200959944e-01  -6.3007440352149571e-02  -2.1593137141663721e-01  6.0113098609845106e-01  -1.4031622409010608e-01  -6.3324836467472678e-01  5.0339532412474264e-01  -7.5759758753732573e-02  -1.3497702190288428e-02  -3.6784847907060360e-02  -4.4959369464908021e-02  -3.6669884381208684e-01  -4.3646239942954290e-01  -1.3118319640224956e+00  -1.3055324537919879e+00  -1.3963387329743926e+00  -2.1197437407552283e-01  -2.9933813534926279e-01  -1.4690754230994985e-01  -1.3054387476455964e+00  -1.0330465199312198e+00  -7.0115033100734928e-02  -2.9549218833094715e-01  -1.0135102779001806e+00  -4.1239304063550009e-01  -1.4514063222042741e+00  -3.6260578014803951e-01  -2.6179660017637812e-01  -2.0558474374348093e-01  -2.3680158344814972e-01  -8.0937763481359826e-01  -7.4665900273193553e-01  -1.8812755741776016e-01  -1.7772843899997084e-01  -1.4567490821724358e-02  -1.4632964663861572e-02  5.3158552610588265e-02  -2.0435161006686120e-01  -1.4526568484759131e-01  -1.1988941497397768e-01  -2.3574639987035775e-01  -9.1931065003285753e-02  -5.3968983239397383e-01  -1.1568711442344206e+00  -1.3782732687631799e-01  -1.6764077332030858e-01  -5.8496900953892469e-02  -1.9391150338112903e-01  -7.4713751819266350e-01  -4.6803188029044018e-01  -9.6138836957617699e-02  -5.1719888475120018e-02  -2.3375891483408986e-01  -3.4962926120419685e-01  -3.8196008011362942e-02  -2.6486463531126414e-01  -1.2539922236113212e+00  -4.0296201378781660e-01  -2.2062374623078276e-01  -9.3084142291562599e-01  -9.1052684117140037e-01  -5.9716848437678893e-01  -3.8197718777987610e-01  -3.8420416761223775e-01  -1.4144818032850514e-02  8.2623326953930945e-02  -3.1782509057842628e-01  -1.6040347921893570e+00  -7.6136967610610493e-02  -1.1169497102124357e-01  -4.9292755840597263e-01  -1.2359243417964254e-01  -1.1194725814473441e-01  -9.8017877691979047e-02  -2.4919163461831539e-01  -1.7611104196453978e-01  -1.9343566082216723e-01  -1.9783463461471917e-01  1.2407524751329954e-01  -8.5397712930160030e-01  -6.4632747524740375e-01  5.5430175334874196e-02  -5.9024675018856783e-02  -4.4134879982571568e-01  -3.9970720122059400e-01  -2.8418654882603073e-01  -7.0988012427363434e-01  -1.8182257858654851e+00  -4.4828600640374089e-01  -1.1841171829042600e+00  1.9454816676740030e-01  -1.6774579611005080e+00  -1.3952390339012815e+00  3.7618442675039532e-01  -1.0537123397059052e+00  -1.5219883999757799e-01  -3.8425801200069998e-01  -7.4138995109387529e-01  -8.6345944578189859e-01  -2.5698392956823896e-01  -1.2316175101600428e+00  4.3560449465690460e-01  -9.8289999090531022e-01  -6.0299997274621910e-02  -2.7343225542355837e-01  -1.2764481579560177e-01  -2.4853283383700220e-01  -6.9065995986710271e-01  2.3697064461408479e-01  -2.4218991818134622e-01  -1.6363641915491220e-01  -3.3359491599773056e-01  -1.6901854150689133e-01  -3.2816580367129428e-01  -3.0044009197259974e-01  -3.0364906558291516e-01  -1.8592679506059845e-01  -3.1150123722181511e-01  -1.1513182530319070e+00  -8.1700992251699647e-02  -1.0796176814288645e+00  -3.4559991134801049e-01  -3.6412357244284610e-01  -4.1721605142631191e-01  2.0573497796930540e-01  -2.1619782287992348e-01  -1.9246179125623278e-01  1.0598183431430055e-01  -1.0740152701747971e+00  -2.8322356069237253e+00  -1.6167229389552213e+00  1.7326631290337971e-01  -1.1781161597247185e-01  -2.0745545983111921e-01  -2.1862361821730356e-01  -2.4205530319797541e-01  -1.0684659630240705e+00  -1.3557303617929239e-01  -4.9472326636915656e-02  -6.2455645167421650e-02  -3.2146695494220462e-01  -3.3048533080147595e-02  -9.1309270293361189e-01  -4.6223598260780729e-01  -5.2339058422290197e-01  -2.9982715612623320e-02  -1.3249749712561234e-02  -1.5469637675991701e-01  -2.3747995416074480e-01  -7.1126217625739729e-01  -2.8653992586489696e-01  -1.1915985502112809e+00  -3.9951140893030229e-01  -1.2610092278473848e-02  -2.8867766417836532e-02  -8.7792316932827033e-02  -3.2972216731520156e-02  -3.6048671340099486e-01  -1.2337925958184082e-01  -1.4372812822481382e-01  -4.1794555475831219e-01  -4.9756198366692589e-01  -4.3411633699532398e-01  -4.2387522770302560e-01  -3.6281593364476217e-01  -6.9319713078290590e-01  1.0410991685926076e+00  -4.4032552830812649e-01  -9.7361610768403961e-01  -3.7630198295971762e-01  -3.8719156707639307e-01  -3.2215661761418968e-01  -3.1071302993625521e-01  -2.9851247397711594e-01  -3.8358901838179743e-01  -2.7775706954406715e-01  -1.9424906010648368e+00  -1.8823162939988569e+00  -2.8207115123420851e-02  -3.6251698524925613e-01  -1.2497931146684819e-01  -3.4754765774471230e-01  -4.3304380766127382e-01  -3.8571903442805572e-01  -2.8519236207542920e-01  -1.8614118001319074e-01  -7.4719108321736144e-02  -6.1731592082105623e-02  -8.6675854699437033e-02  -3.3710525035415001e-01  -3.9241224275174380e-01  -3.7260586676571172e-01  -3.1100712833048444e-01  -1.2946229762770678e-02  -3.6471985635066012e-02  -3.8419490124607902e-01  -2.8493914857047886e-01  -2.6099387359837262e-01  -1.6182830061056344e-01  -4.1158941355276213e-01  -1.6087170195952635e-01  -5.1364778551079204e-01  -4.8417429538843920e-01  -2.8500479417390245e-01  -1.1891519381582645e-02  -1.0458268476565824e+00  -3.4097690049899865e-01  2.3149731177357909e-02  -3.2105043158274604e-01  -1.7125065915389306e+00  -1.0116545349900266e+00  -8.5694874749725347e-01  -8.3932647523790749e-01  -7.1225203326693109e-01  -5.7451747928620223e-01  -2.0221988696535482e+00  -1.4092955686838797e+00  -1.1234659840741985e+00  -5.7960397667741870e-01  -3.6046651672399854e-01  -2.1346730926071195e-01  -4.4177814490769379e-01  -8.7330929997874424e-02  -3.3534006123881638e-01  -6.1588027154201461e-02  -8.7504875366551327e-02  -1.7416524198232586e-01  -6.8342287614908237e-02  -6.7691506396820555e-01  -4.5883876857449107e-01  -2.7522503390352443e-01  -3.7212007004256736e-01  -5.7828173224681978e-01  -1.5375808656007453e+00  -1.0920615512629670e+00  -4.9460693638166864e-01  -4.4869218002208006e-01  -4.1030943136506454e-01  -4.1610006607016642e-01  -4.2770147767104122e-01  -3.1318961393743527e-01  -3.2111018513615769e-01  2.4741780294583359e-02  -3.7349791846378810e-01  -2.3922358272694061e-01  -2.5513778852629238e-01  -4.4128682821906945e-01  -1.0535068727984570e-01  -1.0119968781067952e+00  -9.9335717417610203e-01  -1.2702703621986200e+00  -6.5964339000597116e-02  -8.5330082020481823e-01  -2.7429344614980400e-01  -2.7934658008938457e-01  -1.8027128261624853e-01  -1.1123356657325881e-01  -1.2171532184700837e+00  -3.8896153361617691e-01  -1.7839015660913154e-01  -1.3405776354133592e-01  -1.9229267584327941e-01  -3.2059650959343922e-01  -9.9157063528913111e-02  -2.5484325412402836e-01  3.9044927388224016e-01  -2.1771232761547996e-01  -4.6812283143441918e-01  -4.9712206054785567e-02  -4.0593730559077515e-02  -4.4368898031813325e-01  -3.0246581979858483e-01  4.4740937668900005e-01  -3.4555365457238291e-01  -9.9575951518507427e-02  -1.0320971965528367e-01  1.3187755767851196e-04  -4.1164263674540055e-02  -5.7944814404824935e-02  -1.4300747612916875e-01  -4.0424309270267361e-01  -5.0027060987736904e-01  -6.3337073887184925e-01  -5.0990810846801871e-01  -1.3238942880486534e-01  -1.8166817554896589e-01  -1.2916699057552322e-01  -4.2527925646467879e-01  -8.6247860027007781e-02  -1.1452284242893873e+00  -1.1433818511313963e-02  -4.9448458722283750e-01  -9.5756403936414503e-01  -2.2794070086763460e-01  -2.2373007869108169e-01  -2.0175552626874066e-01  -1.0587062703719186e-01  -9.3920017992374016e-01  -7.4843381210929971e-01  -1.2471997398407433e+00  -6.9911920300853703e-01  -1.0982507222959943e+00  -2.2960082807313539e-01  -1.2442615723647041e+00  -1.2566811211312710e+00  -4.4267653423271636e-01  -3.7716415702867245e-01  -4.5071676694383306e-01  -2.1853169239623296e-01  2.7312200102851314e-01  -2.4111195415659259e-01  -3.1002422280263492e-01  -3.4270303988308322e+00  -1.1800793419188942e-01  -4.6229952225818527e-01  -9.3778680287598754e-02  -6.4176828274805342e-01  -3.5135577589565375e-01  -2.2996059916301165e-01  -1.4058228157142555e-01  -3.6297736205159037e-01  7.6247896203650245e-01  -1.6372860193994335e-01  -7.5420732623552544e-01  -3.4019952633313016e-01  -3.5422260599634176e-01  -3.7067012726621440e-01  -4.2979733730759301e-01  -1.9426351235978864e-01  -2.6236424483589416e-01  -5.5932563882623076e-01  -4.3870065048064638e-01  -1.0793467983075229e+00  -1.4698391685999737e-01  -1.3152373346589974e-01  -3.8486443957826237e-02  -2.5419941227509663e-01  -4.8538794001298119e-01  -4.9069297310767462e-01  -4.3182730580028528e-01  -8.2021838828394492e-02  -4.7030396801684426e-01  1.2805887992989126e-01  1.2606019697972246e-01  -2.3856246084722690e-01  -1.0888619548332276e-01  -3.2846657042675415e-01  -8.0802344036674534e-01  2.4251143402392344e-01  -2.1744717746342506e+00  -4.4655047847843060e-01  -2.3533776042241900e-01  -9.8323233956456102e-01  -9.1213024602841675e-01  -1.4122370074170771e+00  -6.0044874160312056e-01  -7.9371198217949815e-02  -4.4262644792400985e-01  -3.0944487695081624e-01  -5.7676525495495057e-01  -3.4112745974673259e-01  -1.3089232441517118e-01  -1.1996189315423642e+00  -1.5482736208711378e+00  1.0756326493725515e-01  4.0259954745193804e-01  -3.6000956162987582e-02  -1.3444695867085368e-01  -3.5303157850155387e-01  -2.0636473224967203e-01  -1.1623450475038370e-01  -6.8558299728230365e-01  -2.1855485271434195e-09  -1.7082556612569626e-02  -3.7962531208923356e-01  -1.9950007378218831e-01  -1.2788793734425749e-02  -5.1501774444102932e-01  -4.9078195530312875e-02  2.1964660110652092e-02  8.3130880943136972e-03  -1.0994761278977506e-01  -4.4539417239223672e-01  -2.9205822354997518e-01  -2.7071518655385080e-01  -2.6291925284439643e-01  -2.5531820394639931e-01  -2.7526746788027595e-01  -1.1932757955054198e-01  -1.1980831750447010e+00  -8.1683864057380018e-01  -1.5400297688625606e+00  -1.0364873001072683e+00  -2.9729551361683243e-01  -2.8233251466046821e-01  -1.1721678047737247e-01  -1.0721569392178637e-09  -2.7704568375073069e-01  -4.7186233275246270e-01  -1.3330139698039731e-01  -3.4326294104762711e-01  -3.3332903101371358e-01  -3.3290385893378455e-01  -3.6969462302630984e-01  -1.6989252629117468e-01  -3.9343762601005006e-01  -1.4015180294656173e+00  -6.9760155308722954e-02  -1.4439897468816600e+00  -2.6018035856466948e-01  -2.0278270765178272e-01  5.6863163721195001e-02  -1.5540795522887910e-01  -1.8796783830408950e+00  -2.2897039576078432e-02  -2.5250566964635263e-02  -1.0477241189606773e-02  -4.2487941435847454e-01  -1.9481024570600602e+00  -1.9310037142692347e+00  -1.1852766828405085e-01  -7.7024562542571617e-02  -3.9639579357505472e-01  -1.3414307172527582e+00  -9.4242604758034143e-01  -6.1256748599397615e-01  -1.1197191707062699e+00  -3.2616589361050546e-01  -1.6755756627970936e-01  -1.5380959501692171e-01  -8.5648573959280871e-01  -4.5424954755864094e-01  -2.1969805207304965e-01  -1.4478137230095474e+00  -1.3594949624481536e+00  -2.1148477965716137e+00  -3.6824127343170010e-01  -3.8779588033071549e-01  -3.1194087203256354e-01  -3.5579427131215474e-01  -8.9180820555804663e-01  -3.3073349737921315e-01  -4.0875606633375955e-01  -5.3547896786499308e-02  -4.4557430296198713e-01  -4.6934929555103866e-01  -3.9831149668860089e-01  -1.1685224907889504e+00  -2.5942582832650952e-09  7.4756797852340096e-01  5.3259143575749079e-01  -8.2285061490019240e-01  -2.2560366338047314e-01  -2.1450537277633586e-01  -4.0802281136461527e-01  -4.1815345125201414e-01  -2.4926165840557726e-01  -1.0108775096453282e-01  1.5672523583863379e-01  9.8615351786494387e-02  1.0612871487677816e-01  -9.3659746452886244e-02  -3.9890615418826304e-02  -2.4265249061560348e-01  -2.2979336790957200e-01  -2.2587554158476369e-01  -3.0805143949248548e-01  2.7869107877774990e-01  -1.0918172644012154e+00  -3.9391027615586244e-01  -3.6258915676511094e-01  -1.4988583441929317e+00  -7.1934419717428566e-01  -2.1044483727822461e-01  -4.09742