<?xml version="1.0"?>
<VTKFile type="UnstructuredGrid"  version="0.1"  >
<UnstructuredGrid>
<Piece  NumberOfPoints="2362" NumberOfCells="4391">
<Points>
<DataArray  type="Float64"  NumberOfComponents="3"  format="ascii">0 0.41 0  0 0 0  2.2 0 0  2.2 0.41 0  0.2404508497187474 0.2293892626146237 0  0.25 0.2 0  0.2404508497187474 0.1706107373853764 0  0.2154508497187474 0.1524471741852423 0  0.1845491502812526 0.1524471741852423 0  0.1595491502812526 0.1706107373853764 0  0.15 0.2 0  0.1595491502812526 0.2293892626146237 0  0.1845491502812527 0.2475528258147577 0  0.2154508497187474 0.2475528258147577 0  0.5951056516295153 0.2309016994374948 0  0.6 0.2 0  0.5951056516295153 0.1690983005625052 0  0.5809016994374947 0.1412214747707527 0  0.5587785252292473 0.1190983005625053 0  0.5309016994374948 0.1048943483704846 0  0.5 0.1 0  0.4690983005625052 0.1048943483704847 0  0.4412214747707527 0.1190983005625053 0  0.4190983005625052 0.1412214747707527 0  0.4048943483704846 0.1690983005625053 0  0.4 0.2 0  0.4048943483704847 0.2309016994374948 0  0.4190983005625052 0.2587785252292473 0  0.4412214747707527 0.2809016994374948 0  0.4690983005625053 0.2951056516295154 0  0.5 0.3 0  0.5309016994374948 0.2951056516295154 0  0.5587785252292473 0.2809016994374948 0  0.5809016994374947 0.2587785252292473 0  1.1 0 0  0 0.205 0  1.1 0.41 0  0.55 0 0  0.55 0.41 0  0.275 0 0  0.275 0.41 0  0.4125 0 0  0.4125 0.41 0  1.65 0.41 0  1.65 0 0  1.375 0 0  1.375 0.41 0  1.925 0 0  1.925 0.41 0  0.8250000000000001 0 0  0.8250000000000001 0.41 0  1.5125 0.205 0  1.7875 0.205 0  0.9625000000000001 0.205 0  1.2375 0.205 0  2.2 0.205 0  1.99375 0.2152743902439024 0  0.7815916808149406 0.1777281409168082 0  2.0625 0 0  0.6875 0.41 0  2.0625 0.41 0  2.2 0.3075 0  0.6875 0 0  1.7875 0.41 0  1.375 0.1486128048780488 0  1.5125 0 0  1.7875 0 0  1.5125 0.41 0  0.9625000000000001 0 0  0.9625000000000001 0.41 0  0.1375 0 0  0.1375 0.41 0  1.2375 0 0  1.1 0.1486128048780488 0  1.2375 0.41 0  1.65 0.1486128048780487 0  1.676715909090909 0.2793064024390244 0  1.126715909090909 0.2793064024390244 0  1.348284090909091 0.2793064024390244 0  0.7111837382351637 0.2844002487563727 0  1.894702181800738 0.1282910975492754 0  2.092797818199262 0.1282910975492754 0  1.85625 0.3075 0  0.89375 0.3075 0  0.89375 0.1025 0  0 0.3075 0  0 0.1025 0  2.099172119769978 0.25625 0  1.002356446954348 0.1010393851523063 0  1.99375 0.08395950269330846 0  1.459960956013612 0.3075 0  1.569025960719943 0.2986889805672169 0  1.03125 0.3278689922742084 0  0.3192727088781826 0.3079212096616675 0  1.959375 0.3126371951219512 0  1.749222215368287 0.1025 0  1.275777784631713 0.1025 0  2.2 0.1025 0  1.225938124459196 0.3075 0  1.550777784631713 0.1025 0  1.44375 0.07430640243902442 0  1.16875 0.07430640243902439 0  0.3437500000000001 0.07397709473011121 0  0.6911993143367559 0.1118123074367635 0  0.8057215702682121 0.2702269632945269 0  1.899250267340833 0.2229966846119207 0  0.8720458404074704 0.1913640704584042 0  0.8032958404074703 0.0888640704584041 0  0.6337831477789919 0.3348380330536306 0  0.1020898364287272 0.3140258291809757 0  1.766482954545455 0.2934032012195123 0  1.051658316544432 0.2265720188842194 0  0.2 0.3400647632937836 0  1.421109702350723 0.2261157654379721 0  0.61875 0 0  0.6878950265164463 0.199645915719726 0  0.098916018031319 0.09171660955420841 0  2.13125 0 0  2.118919042110979 0.3422084711244843 0  1.30625 0.41 0  0.20625 0 0  1.597888256393107 0.2173787389261347 0  0.7562500000000001 0.41 0  1.829299675393195 0.07400700849299596 0  1.71875 0.41 0  0.3225835293916391 0.1601701968669111 0  0.2606666398188512 0.0822552582932282 0  1.16875 0.41 0  2.038220665644273 0.332420740103091 0  0.176193934632343 0.0734896648625108 0  0.07390688010811153 0.1697064032433452 0  0.05452951551825875 0.25625 0  1.452769549894695 0.1548122580621249 0  1.369219062229598 0.07430640243902442 0  1.30625 0 0  1.075792183788687 0.07430640243902439 0  1.720943423819132 0.1714577452753128 0  1.157188124459196 0.205 0  1.304056576180868 0.1714577452753128 0  1.67579304192913 0.07430640243902437 0  0.7671326277666176 0.3352102652308781 0  0.3304630541488595 0.2342593631089261 0  1.209670467133757 0.136210026696477 0  0.7562500000000001 0 0  1.58125 0 0  0.9945036230615469 0.267761374151655 0  0.4812500000000001 0.41 0  0.06875000000000001 0.41 0  0 0.35875 0  0.9595378427479357 0.3376804103519943 0  0.34375 0.41 0  0.3897250743675729 0.3371889980614159 0  1.58125 0.41 0  1.631724228912893 0.3381867502687533 0  1.825608881788174 0.14499488549201 0  1.85625 0 0  1.44375 0 0  1.44375 0.41 0  1.85625 0.41 0  2.13125 0.41 0  0.89375 0 0  0.89375 0.41 0  0.20625 0.41 0  0.34375 0 0  0.4812500000000001 0 0  0.06875000000000001 0 0  0.61875 0.41 0  1.16875 0 0  1.03125 0.41 0  1.03125 0 0  1.71875 0 0  1.99375 0 0  1.99375 0.41 0  1.340625 0.3489494290853124 0  1.134375 0.3489494290853123 0  1.700180620188976 0.3438659752031281 0  1.033412357328477 0.1612902025713048 0  2.135782184673599 0.07126652247502523 0  1.668441847249787 0.2129203728327609 0  1.295782514339747 0.2378437748815763 0  0.6228574598132852 0.07671664390624158 0  1.409375 0.3520314716057996 0  2.129248544730567 0.1906135162504124 0  2.060771381434487 0.1989445750470348 0  2.013252586573865 0.1496169464686054 0  1.942766402200229 0.1734448904596831 0  1.895522487186454 0.06076163953489683 0  2.069553871656643 0.06605731020975725 0  1.274680914880868 0.3520219391081363 0  0.835055311278239 0.3424380136622334 0  0.7401021045332367 0.06543430142341211 0  1.614713220494657 0.09473434380863296 0  0.7520823699979313 0.2348229030472582 0  0.7043417970120415 0.3481429366232311 0  0.6546643048326494 0.2543538116156937 0  1.72990325744076 0.2380068107952482 0  1.356580098625191 0.2120393231351682 0  2.034370752044885 0.2668681600792073 0  1.51768709249349 0.3426260931494756 0  1.561883724969884 0.1650446847858835 0  0.2653439943239876 0.345171903972789 0  0.8330496081674507 0.1432136774486613 0  0.9281250000000001 0.05125000000000001 0  0.9330537010450736 0.2595558360668175 0  1.197344062229598 0.2523725417393646 0  1.804085235518364 0.3468178408964637 0  1.817887819205233 0.2589243285818559 0  1.905897727272727 0.3485060975609756 0  0.9485678863664097 0.1400383079249692 0  0.859375 0.05125 0  0 0.05125 0  0.4074403514301243 0.06423252630440013 0  0.5245798370136819 0.3551909831755992 0  0.7505241288352321 0.1253952068674773 0  0.2619923711861096 0.2853251789076993 0  0.8650169191207625 0.2527737409589524 0  1.192836486056382 0.3562350748565544 0  0.446875 0.3592802242693868 0  1.28257088594801 0.2944411014911587 0  1.474860187679412 0.2504218616229368 0  1.406767003493824 0.2829282258560709 0  1.845656689180403 0.1998310418452388 0  2.144958525570388 0.2909790873294231 0  2.2 0.15375 0  0.5843750000000001 0.3640402812892887 0  1.57794966442982 0.3540357145964566 0  0.6847665055715617 0.05605778745887328 0  0.637863756942103 0.1315837975700875 0  0.515625 0.04531250000000001 0  0.5718106469538725 0.0522410511374206 0  0.0496154796471391 0.333125 0  0.3662446794185922 0.2773760459259736 0  1.508991196088596 0.1421783375065625 0  0.09776612425612034 0.2204896805326566 0  1.50436820029908 0.06143401634903343 0  1.223857000523521 0.08235548624535324 0  1.153316824384777 0.1289850171317838 0  2.148922302309752 0.1258841779285271 0  1.621993280276081 0.2841214267927899 0  1.550118654119087 0.2461998729100966 0  1.327182649291491 0.1216967252533594 0  1.753125 0.04556020050186112 0  1.271875 0.04556020050186116 0  0.9824282234771738 0.05051969257615315 0  1.94956388244759 0.1180512551534177 0  1.949997712993411 0.04965831614304109 0  1.771961817615021 0.1530278789497521 0  1.909246823951428 0.2812757146784527 0  1.106872424375684 0.2277674570637181 0  1.948575539857022 0.2445328248721197 0  1.697271520964565 0.1233917627620729 0  1.065625 0.3689344961371042 0  1.085849084308977 0.3170853572226867 0  1.577403511714593 0.05463601888079143 0  0.05622663515370135 0.05493816910862376 0  1.751571320346033 0.3651102912045228 0  0.1583785085108421 0.2994699345738728 0  0.1455283439499995 0.3542795598723423 0  2.2 0.35875 0  0.4605652621775715 0.05075477778725031 0  0.1455852234589313 0.1166494778469164 0  0.3170871189130322 0.3624193665482365 0  1.466879772203159 0.3611261772912453 0  1.045297740100467 0.2779948725912803 0  1.990280163552011 0.3564754268533217 0  1.17471064520912 0.2990917256188288 0  0.8219886595034398 0.2165866596606327 0  0 0.25625 0  2.2 0.25625 0  2.2 0.05125 0  0 0.15375 0  1.853978576207987 0.35875 0  0.884510791938353 0.35875 0  1.000341183849677 0.3689344961371042 0  1.515638456102889 0.2882700110184686 0  0.09048297387599738 0.3637717362208066 0  2.150453692751374 0.2387066338105111 0  1.323782677156475 0.04897634338873398 0  1.409375 0.03715320121951221 0  1.406484531114799 0.1087852750766809 0  1.134375 0.03715320121951219 0  1.627401732573545 0.04552157221025036 0  0.2990651506063402 0.04656992046979862 0  0.3658138865510369 0.1250908110711949 0  2.045405893604797 0.1105340662939892 0  1.255408269734577 0.1577307500159216 0  0.7848198562432198 0.04176011905165711 0  2.028125 0.03707597992059326 0  0.04420832937638274 0.128125 0  0.1197849154434487 0.2663398672460083 0  0.2773440361767429 0.1325614896367195 0  1.248258025468107 0.2565907092181813 0  0.1300647302703173 0.0508462728378621 0  1.203125 0.03661323374043041 0  0.221416587416242 0.04909393590284095 0  2.072662025974815 0.2975086504196739 0  0.7309361959118756 0.1724117473133809 0  1.049057507569546 0.1150968098952652 0  1.029426696124534 0.0611707995214115 0  0.7592092911094858 0.2823604815974596 0  1.113520643506534 0.1031115419092917 0  1.887722846421017 0.1760882698830035 0  0.7976278545651526 0.3713969152554929 0  0.8476376957455005 0.2968044376629371 0  1.472640588990488 0.1118278026240017 0  1.865937103925594 0.2604137786483804 0  1.463913572748262 0.2030442564990043 0  0.2154602920799496 0.2951006307678045 0  1.376426316059077 0.3186741374914345 0  0.928125000000
[...]
<PointData  Vectors="f_37"> 
<DataArray  type="Float64"  Name="f_37"  NumberOfComponents="3" format="ascii">7.3076860662761637e-06 1.5465835111527560e-05 0.0000000000000000e+00  1.4324467070139991e-05 -2.3133561294420292e-05 0.0000000000000000e+00  6.9282960942851284e-05 1.0459527124748293e-06 0.0000000000000000e+00  6.8523643101368702e-05 3.6676167970562737e-08 0.0000000000000000e+00  1.3727819345783003e-04 4.5609804920214672e-06 0.0000000000000000e+00  8.2907791927860769e-05 4.7033713483143601e-05 0.0000000000000000e+00  1.0600088789959666e-04 2.5758758804831218e-05 0.0000000000000000e+00  2.5259494607651707e-05 -8.1512731228729641e-05 0.0000000000000000e+00  -3.5237353252913535e-05 -2.0746898471722251e-05 0.0000000000000000e+00  6.0775910788824853e-05 -7.4999767455744860e-05 0.0000000000000000e+00  8.2239609492261494e-08 -2.6083083832460943e-05 0.0000000000000000e+00  1.0357053566951185e-04 9.6086144081059910e-05 0.0000000000000000e+00  1.2573667275089627e-05 3.4299771110117069e-05 0.0000000000000000e+00  6.3025423383799483e-05 3.2789930075847597e-05 0.0000000000000000e+00  4.8174808124984170e-05 7.0539361369951415e-05 0.0000000000000000e+00  1.8119147765528656e-02 -2.5693020721057717e-02 0.0000000000000000e+00  1.1494108295113768e-04 8.5330261811832127e-05 0.0000000000000000e+00  2.3252289814462330e-04 1.3735144012537974e-04 0.0000000000000000e+00  2.2913609011875456e-04 1.4311964047932944e-04 0.0000000000000000e+00  1.9022810174636152e-04 -1.5383159542627426e-04 0.0000000000000000e+00  2.2656354376213721e+00 1.0416202667432575e+00 0.0000000000000000e+00  -1.4565443774802037e-04 -4.8201513381403098e-05 0.0000000000000000e+00  -2.8292573643299145e-05 3.2063194438832142e-05 0.0000000000000000e+00  -3.4826542550936945e-05 6.3840919594191769e-05 0.0000000000000000e+00  -1.3397023603206169e-05 7.0753713483950826e-05 0.0000000000000000e+00  3.4624927945396683e-01 -1.2063695382538939e-01 0.0000000000000000e+00  1.1519158702484420e-05 4.2586035436599559e-05 0.0000000000000000e+00  3.3630767937336248e-05 4.5514008801935829e-05 0.0000000000000000e+00  6.3895711064236989e-05 4.7742785781972630e-05 0.0000000000000000e+00  7.0827275774117021e-05 3.9292688589643844e-05 0.0000000000000000e+00  1.3803226111049083e+00 -5.7455541591413606e-01 0.0000000000000000e+00  4.5216324586293501e-05 2.1659578411892947e-05 0.0000000000000000e+00  9.2233799476776931e-05 3.3996555481170126e-05 0.0000000000000000e+00  1.2604880191272185e-04 -2.3412972534313192e-05 0.0000000000000000e+00  7.0863864908739493e-05 -1.7316955006472912e-06 0.0000000000000000e+00  1.5000040913657298e+00 7.7517569798127891e-06 0.0000000000000000e+00  6.9641008094896274e-05 -2.1933092212571200e-07 0.0000000000000000e+00  1.3300139434774543e-04 -9.2583724165417869e-06 0.0000000000000000e+00  6.5011958500020136e-05 -2.8238592882451355e-06 0.0000000000000000e+00  -3.8260645240301062e-06 4.6002229927516638e-06 0.0000000000000000e+00  2.6838410589121170e-05 -1.5302446438739585e-06 0.0000000000000000e+00  -4.2649478824110005e-05 2.5329053770039373e-06 0.0000000000000000e+00  3.8611295903573983e-05 1.5180666350336277e-06 0.0000000000000000e+00  6.9926792281464387e-05 -1.5345858829401250e-06 0.0000000000000000e+00  6.9477206977943965e-05 -3.6434320892078954e-07 0.0000000000000000e+00  6.8646083625541977e-05 -2.4370233131696235e-07 0.0000000000000000e+00  7.1261872517860541e-05 -2.9420580309968517e-06 0.0000000000000000e+00  7.0372811430736862e-05 -6.5374371132572593e-07 0.0000000000000000e+00  6.7198844735490748e-05 -2.5638679854525917e-06 0.0000000000000000e+00  7.0969377920768821e-05 1.2155105450290497e-06 0.0000000000000000e+00  5.9110553496257218e-05 6.3370392211030857e-07 0.0000000000000000e+00  8.3117958604972153e-01 -9.9314830138945843e-05 0.0000000000000000e+00  8.3112750090690679e-01 -5.0133769247616014e-05 0.0000000000000000e+00  8.2900955677382648e-01 -6.4345727135514414e-03 0.0000000000000000e+00  8.3122286442175797e-01 -6.2634376718760307e-04 0.0000000000000000e+00  8.3204305332863426e-01 1.3346604957166900e-05 0.0000000000000000e+00  8.3121893869001295e-01 3.3548411526961208e-05 0.0000000000000000e+00  7.8552864879924100e-01 -8.7573072003304716e-03 0.0000000000000000e+00  6.2256447253728405e-05 4.1252681072158353e-08 0.0000000000000000e+00  3.1005503230901203e-05 5.7259429843792206e-07 0.0000000000000000e+00  6.7340596026551033e-05 -3.0195784920494245e-07 0.0000000000000000e+00  8.3230871943645357e-01 -1.1519881725860995e-03 0.0000000000000000e+00  9.8068630260242281e-05 1.7590445714291171e-06 0.0000000000000000e+00  7.0393083802517661e-05 -6.8821010523765347e-07 0.0000000000000000e+00  8.3107178592990727e-01 -1.8619063269436929e-04 0.0000000000000000e+00  7.2008155522929867e-05 1.0433657618334275e-06 0.0000000000000000e+00  6.8125339232916567e-05 1.0340747197538598e-06 0.0000000000000000e+00  7.1305695199488413e-05 -1.3700133783241382e-07 0.0000000000000000e+00  7.3595236767110450e-05 -1.9808394411703353e-06 0.0000000000000000e+00  5.8880505973973594e-05 1.5769304520395027e-07 0.0000000000000000e+00  -2.9879903368681790e-05 2.6498921546196664e-06 0.0000000000000000e+00  -1.7648206373863217e-05 1.1695398899201922e-06 0.0000000000000000e+00  6.9175983483957495e-05 -5.0717145173686464e-07 0.0000000000000000e+00  8.3003486186567543e-01 -1.7280130870487762e-03 0.0000000000000000e+00  6.7895315192258876e-05 4.5125605273350348e-07 0.0000000000000000e+00  8.3116704667512764e-01 -1.2447753766605947e-05 0.0000000000000000e+00  8.3121294943115853e-01 -6.2955350635611618e-06 0.0000000000000000e+00  8.3206497574514193e-01 -1.5815834002170755e-03 0.0000000000000000e+00  8.3130640127101640e-01 -1.0373099082271004e-04 0.0000000000000000e+00  8.4054072123316204e-01 -1.7477647990934614e-01 0.0000000000000000e+00  8.3113759671075227e-01 4.8515796897337722e-05 0.0000000000000000e+00  8.3122225564253360e-01 3.8363155728576083e-04 0.0000000000000000e+00  8.3118819985143721e-01 1.4628711415472464e-05 0.0000000000000000e+00  8.4031614578235458e-01 -1.3950153842494957e-02 0.0000000000000000e+00  8.2385402368647598e-01 -9.0420878581270309e-04 0.0000000000000000e+00  1.1249989410610843e+00 4.3767433774264015e-06 0.0000000000000000e+00  1.1250010625422044e+00 6.0839619060156881e-06 0.0000000000000000e+00  8.3131885359818958e-01 -1.4422856111857068e-04 0.0000000000000000e+00  8.2780089657328604e-01 -2.1086597639170274e-03 0.0000000000000000e+00  8.3123570260133350e-01 1.0389360703830638e-04 0.0000000000000000e+00  8.3111558065674718e-01 -1.0081779411278677e-04 0.0000000000000000e+00  8.3109983043103641e-01 -6.3346135472021038e-05 0.0000000000000000e+00  8.3438287323835114e-01 -2.7198083882171127e-03 0.0000000000000000e+00  1.1439489381351846e+00 -2.0714905462581069e-02 0.0000000000000000e+00  8.3138604725440290e-01 -1.1044903440758287e-04 0.0000000000000000e+00  8.3104302266115926e-01 -1.5344682349077029e-04 0.0000000000000000e+00  8.3092162605246089e-01 -2.3800992181785939e-04 0.0000000000000000e+00  8.3237970543301421e-01 1.2646348185221452e-03 0.0000000000000000e+00  8.3197268409747660e-01 -5.7131326810770297e-04 0.0000000000000000e+00  8.3109335798817563e-01 -1.3424016608389278e-04 0.0000000000000000e+00  8.3103700489342958e-01 1.3080526936245463e-04 0.0000000000000000e+00  8.2970205532968688e-01 -3.2368196909348204e-04 0.0000000000000000e+00  1.3050395345094321e+00 -1.3182706620078466e-01 0.0000000000000000e+00  8.0012060264233686e-01 1.5707271462798858e-01 0.0000000000000000e+00  8.2992123333268009e-01 -4.5424416463210819e-02 0.0000000000000000e+00  8.3116281029703021e-01 6.6599790988895311e-06 0.0000000000000000e+00  8.2044934643729928e-01 -1.1223749212436768e-02 0.0000000000000000e+00  8.2257284412622078e-01 1.4394967903449747e-02 0.0000000000000000e+00  1.2162234485362615e+00 -3.0369182482885387e-01 0.0000000000000000e+00  1.0357175101254059e+00 5.9000976997027577e-01 0.0000000000000000e+00  8.3112153930908883e-01 -4.2578402806919504e-05 0.0000000000000000e+00  8.3118826731888085e-01 -3.2733889410207764e-03 0.0000000000000000e+00  1.3139804624012223e+00 1.1625832193958283e-01 0.0000000000000000e+00  8.3116210740015894e-01 -1.1136617182952163e-04 0.0000000000000000e+00  1.2309535028337423e-04 9.2386438819837248e-06 0.0000000000000000e+00  6.0288493635851703e-01 -5.0442527564111835e-02 0.0000000000000000e+00  1.0085610919177643e+00 -6.1294321144808583e-01 0.0000000000000000e+00  6.8652177009776295e-05 -3.9876975212737980e-07 0.0000000000000000e+00  8.2995179831496124e-01 -3.8782474228581397e-04 0.0000000000000000e+00  6.6986059549186273e-05 1.3992600491969565e-06 0.0000000000000000e+00  1.1275840891226506e-06 1.4882941731948018e-06 0.0000000000000000e+00  8.3114443965328466e-01 -5.6451038359148349e-05 0.0000000000000000e+00  5.1076649984253198e-05 4.1902223577491689e-07 0.0000000000000000e+00  8.3099019374783700e-01 -1.2931823927860047e-04 0.0000000000000000e+00  6.2940447224250855e-05 1.9497777881997014e-06 0.0000000000000000e+00  7.4823315552622294e-01 3.6129310370104598e-02 0.0000000000000000e+00  1.3925736602029570e+00 3.9136391969207457e-02 0.0000000000000000e+00  6.6032762136475126e-05 2.9442715736588836e-07 0.0000000000000000e+00  8.3085392758718579e-01 3.4147854700659587e-04 0.0000000000000000e+00  1.3182572655830831e+00 -2.3411209324147647e-01 0.0000000000000000e+00  1.3390133128284163e+00 -1.4883815783223361e-01 0.0000000000000000e+00  1.3727625806250756e+00 1.2159684418543024e-01 0.0000000000000000e+00  8.3112256018555020e-01 -7.3713671396343229e-05 0.0000000000000000e+00  8.3014213616413002e-01 -8.9031256317521706e-04 0.0000000000000000e+00  7.1483189412092598e-05 1.8445336892034939e-06 0.0000000000000000e+00  8.2862769977387296e-01 -1.5474217698281056e-03 0.0000000000000000e+00  8.3112938764365285e-01 -6.3545796477309876e-05 0.0000000000000000e+00  8.3107649988561583e-01 -1.3318284990166483e-03 0.0000000000000000e+00  8.3112641254401842e-01 -3.3335420014150434e-04 0.0000000000000000e+00  8.3113003140446862e-01 -1.3260394396016699e-04 0.0000000000000000e+00  8.8915989541034524e-01 -5.7621974340428650e-02 0.0000000000000000e+00  6.6254581050873806e-01 -9.1020611851224939e-02 0.0000000000000000e+00  8.3066882934539077e-01 -5.7287790950113105e-04 0.0000000000000000e+00  8.5625615447610471e-05 2.5302926643406604e-06 0.0000000000000000e+00  7.0997814268893114e-05 2.2862356244188237e-07 0.0000000000000000e+00  8.3283991559067061e-01 -5.4186079559008270e-03 0.0000000000000000e+00  4.2370048412071419e-05 -2.1473914421098691e-06 0.0000000000000000e+00  -6.2598937473399171e-06 -2.0916567527478481e-05 0.0000000000000000e+00  6.5625263320260474e-01 2.2853125708745852e-05 0.0000000000000000e+00  8.3769441527940214e-01 -4.7369101159710353e-03 0.0000000000000000e+00  1.5948679609835182e-05 -4.7528837570503232e-10 0.0000000000000000e+00  1.3414193467248383e+00 2.4433568038720613e-01 0.0000000000000000e+00  6.4099421949379907e-05 7.8741891841295544e-07 0.0000000000000000e+00  8.3076912922613644e-01 -1.0128087697976606e-04 0.0000000000000000e+00  8.3110304980847360e-01 -4.0373929642916780e-05 0.0000000000000000e+00  6.8015054261377094e-05 -4.9462814421245219e-07 0.0000000000000000e+00  6.2643594399548898e-05 6.5808353471668441e-07 0.0000000000000000e+00  7.1601147181122861e-05 9.6125815867013399e-07 0.0000000000000000e+00  6.7709485927681053e-05 1.2946132794105838e-06 0.0000000000000000e+00  6.5119336526698162e-05 1.0340743009519625e-08 0.0000000000000000e+00  7.4789345377690306e-05 7.7540869225517037e-07 0.0000000000000000e+00  6.2501405905191176e-05 1.0015062061319219e-06 0.0000000000000000e+00  2.7618948466716721e-05 2.5801608893406332e-06 0.0000000000000000e+00  -3.1146503639844669e-05 1.6880074201574505e-06 0.0000000000000000e+00  2.2125786064822299e-05 -2.9719539203468433e-05 0.0000000000000000e+00  -2.9077095914456471e-05 4.0790790487924297e-06 0.0000000000000000e+00  3.8979751604510320e-05 5.0308035423182232e-06 0.0000000000000000e+00  6.9041511546919480e-05 8.6929638430665758e-07 0.0000000000000000e+00  6.2799633846313103e-05 -5.1069559242271416e-07 0.0000000000000000e+00  7.0024237118263994e-05 1.5209568671656085e-06 0.0000000000000000e+00  6.8137359452373833e-05 -5.9202495961839114e-07 0.0000000000000000e+00  7.1581032356145328e-05 -1.3992675256122670e-07 0.0000000000000000e+00  6.3006568941293816e-05 1.4513112273188354e-06 0.0000000000000000e+00  8.2962242917110751e-01 1.2779026695114192e-03 0.0000000000000000e+00  8.3209238004170116e-01 -2.5676605945303127e-04 0.0000000000000000e+00  8.3094894532400077e-01 6.0745773257660977e-04 0.0000000000000000e+00  8.2939219758872773e-01 -3.0013137553694070e-03 0.0000000000000000e+00  8.3086233433834189e-01 1.0097546005752806e-03 0.0000000000000000e+00  8.3117616297195607e-01 -5.7505157202881788e-05 0.0000000000000000e+00  8.3136076100956768e-01 -3.4692235055722566e-04 0.0000000000000000e+00  1.1632228160222102e+00 3.0142057914221410e-01 0.0000000000000000e+00  8.2921354206511089e-01 1.2247675766508632e-03 0.0000000000000000e+00  8.3158290816861502e-01 1.4332168557853179e-04 0.0000000000000000e+00  8.3127513072401338e-01 8.0574261225672839e-05 0.0000000000000000e+00  8.3118320191426920e-01 1.1069243797047775e-04 0.0000000000000000e+00  8.3116754044538710e-01 4.1788652083837496e-05 0.0000000000000000e+00  8.3062408156053935e-01 -1.4809766334069569e-04 0.0000000000000000e+00  8.3018727976328499e-01 -2.2885431823612394e-04 0.0000000000000000e+00  8.3104239566369009e-01 4.7922607638841650e-04 0.0000000000000000e+00  8.5855265305417838e-01 -1.9496091801842672e-02 0.0000000000000000e+00  8.5421701316399168e-01 4.3693284478984497e-02 0.0000000000000000e+00  8.3100515929715812e-01 2.5145538991096615e-05 0.0000000000000000e+00  7.7793591426214026e-01 -7.1333116611212000e-02 0.0000000000000000e+00  9.8647197691446731e-01 -1.0837233242181663e-01 0.0000000000000000e+00  6.4110952655029374e-01 -3.9801313649270448e-01 0.0000000000000000e+00  8.3116462539563596e-01 -2.5752244934123111e-05 0.0000000000000000e+00  8.3123545497969609e-01 -2.0689154596173338e-04 0.0000000000000000e+00  8.3125229235631648e-01 5.0749836757657078e-05 0.0000000000000000e+00  8.3144440217650317e-01 -1.0291448726942613e-04 0.0000000000000000e+00  8.3113488459529272e-01 -7.4528687972293258e-05 0.0000000000000000e+00  1.3134634914192376e+00 -1.7798956088368952e-02 0.0000000000000000e+00  8.1271205302382887e-01 -4.9321368244249178e-04 0.0000000000000000e+00  8.2508135009431038e-01 -9.8058193529806915e-04 0.0000000000000000e+00  8.3246637382779809e-01 -1.0049970030476399e-02 0.0000000000000000e+00  8.3156451030027723e-01 -9.2120568444683593e-04 0.0000000000000000e+00  8.3089306418641073e-01 -2.3614898073312307e-04 0.0000000000000000e+00  8.3112372724955685e-01 -2.8003587967461139e-05 0.0000000000000000e+00  8.3021193654275094e-01 -5.5362224087462998e-05 0.0000000000000000e+00  8.2626499546515109e-01 -3.8841240698725501e-03 0.0000000000000000e+00  8.2577742747656158e-01 1.8161619238421453e-03 0.0000000000000000e+00  6.5624576619560193e-01 -2.1540024256027034e-05 0.0000000000000000e+00  1.6121468416204807e+00 -2.9368540021907569e-01 0.0000000000000000e+00  1.7564915601236348e+00 -1.4295477602459730e-01 0.0000000000000000e+00  7.9287820654946184e-01 4.3639880531776878e-02 0.0000000000000000e+00  1.3998893660460456e+00 -2.5209123160774061e-01 0.0000000000000000e+00  8.2914127111964409e-01 -2.0623242245989947e-02 0.0000000000000000e+00  8.3160435909128627e-01 -2.4049962192341826e-04 0.0000000000000000e+00  1.6612402233855941e+00 1.4868841008072986e-01 0.0000000000000000e+00  8.3162955404976990e-01 -2.5686700486403190e-04 0.0000000000000000e+00  8.3118481097982311e-01 -8.7184526055220446e-05 0.0000000000000000e+00  8.3119726217702739e-01 -5.6459120339374048e-05 0.0000000000000000e+00  8.3111825952845542e-01 2.8383529035102431e-06 0.0000000000000000e+00  8.3144265313664967e-01 -6.6444094351763249e-04 0.0000000000000000e+00  8.3222510151966322e-01 3.8476150127455904e-04 0.0000000000000000e+00  1.5202410396875765e+00 -1.9723801668464130e-01 0.0000000000000000e+00  8.3023496015674036e-01 -3.6282582138655068e-04 0.0000000000000000e+00  9.3337348545383392e-01 1.0014770319437108e-01 0.0000000000000000e+00  6.6551569094392959e-01 4.7298763670970922e-01 0.0000000000000000e+00  1.7201571834671339e+00 2.2361176740408026e-01 0.0000000000000000e+00  1.4443964200256201e+00 2.0131374691714529e-01 0.0000000000000000e+00  9.6553861599287150e-01 6.0815544556731972e-02 0.0000000000000000e+00  9.1523313613665636e-01 2.3138201473438261e-01 0.0000000000000000e+00  8.3113129471058400e-01 -7.4366701307136996e-05 0.0000000000000000e+00  1.2115506718290709e+00 1.5418834964446257e-01 0.0000000000000000e+00  8.3111995600737243e-01 -4.6941391461735138e-04 0.0000000000000000e+00  8.3059864755249690e-01 -1.0894643085819339e-04 0.0000000000000000e+00  8.3020309704265627e-01 -9.6735929537944019e-04 0.0000000000000000e+00  8.3160230279746550e-01 6.8543764943648246e-04 0.0000000000000000e+00  8.3122774248118791e-01 -1.1370121971832115e-04 0.0000000000000000e+00  8.3115104863547007e-01 -5.8781571122849966e-05 0.0000000000000000e+00  8.3102790049342046e-01 -2.6847804855683200e-04 0.0000000000000000e+00  8.2564186279831187e-01 -1.4842842055525821e-03 0.0000000000000000e+00  8.2695977001842569e-01 -5.5832923665088236e-04 0.0000000000000000e+00  8.2318542266467787e-01 -2.4840220572523424e-03 0.0000000000000000e+00  8.3113366567007596e-01 9.9897572325069264e-05 0.0000000000000000e+00  8.2407361830656523e-01 3.5562566009340657e-04 0.0000000000000000e+00  8.3113229927913390e-01 -4.3152975558311288e-05 0.0000000000000000e+00  8.3121424691742107e-01 -4.9022319708485359e-05 0.0000000000000000e+00  8.3133325431046723e-01 -2.0730054714447649e-03 0.0000000000000000e+00  8.3120817309907691e-01 -6.1766981378974509e-06 0.0000000000000000e+00  8.3119044025998579e-01 -5.6512679949366448e-05 0.0000000000000000e+00  8.2735267352456199e-01 -1.0441250859088403e-03 0.0000000000000000e+00  8.3314260748707314e-01 -1.8432254809874213e-03 0.0000000000000000e+00  8.2904367819155111e-01 1.4735715429722802e-04 0.0000000000000000e+00  7.0236315940425065e-01 -1.7020365425334202e-01 0.0000000000000000e+00  8.2323809408937276e-01 -3.3758197093405293e-04 0.0000000000000000e+00  1.3328567892477017e+00 4.3709693724306464e-01 0.0000000000000000e+00  1.0927224963028215e+00 2.2483072508785210e-01 0.0000000000000000e+00  8.2932407128980190e-01 -2.2847163845166676e-03 0.0000000000000000e+00  1.9404017486230576e+00 -1.9204395240862270e-02 0.0000000000000000e+00  1.2998809391126809e+00 -5.8807185556226760e-01 0.0000000000000000e+00  1.2786361644159214e+00 2.5549062552583462e-02 0.0000000000000000e+00  8.2593774344031168e-01 1.8807034561316808e-04 0.0000000000000000e+00  8.3274103439885749e-01 -3.2880276383422087e-03 0.0000000000000000e+00  8.3229215899648779e-01 7.5903068795777154e-04 0.0000000000000000e+00  8.3201571773798044e-01 -1.0015284911804579e-03 0.0000000000000000e+00  8.1145741374213298e-01 -2.4416604934251036e-02 0.0000000000000000e+00  1.4062573044856563e+00 3.0436849357071957e-06 0.0000000000000000e+00  8.3212182140199775e-01 -3.7444690838281250e-04 0.0000000000000000e+00  8.2984380824545201e-01 3.3215010628135670e-03 0.0000000000000000e+00  1.4062521359546178e+00 1.2018741634950500e-05 0.0000000000000000e+00  8.3122697571950699e-01 1.0430143925950243e-04 0.0000000000000000e+00  8.4181298918192826e-01 -6.9939642504298254e-03 0.0000000000000000e+00  8.3067409714399254e-01 -9.5923366691519319e-04 0.0000000000000000e+00  8.3123037724875448e-01 -4.7613758921285834e-05 0.0000000000000000e+00  7.1659947667038348e-01 3.1821625788505559e-01 0.0000000000000000e+00  8.3167346584983048e-01 -1.9744198138657340e-04 0.0000000000000000e+00  8.2925743228189197e-01 -8.7210984934709172e-04 0.0000000000000000e+00  8.2644303472714897e-01 1.6335025245452423e-03 0.0000000000000000e+00  8.3097162902612987e-01 -1.5082285207550355e-04 0.0000000000000000e+00  8.2248218000270457e-01 -2.7740128922084510e-03 0.0000000000000000e+00  8.2680668972163363e-01 3.9708364114196992e-04 0.000