<?xml version="1.0"?>
<VTKFile type="UnstructuredGrid"  version="0.1"  >
<UnstructuredGrid>
<Piece  NumberOfPoints="2362" NumberOfCells="4391">
<Points>
<DataArray  type="Float64"  NumberOfComponents="3"  format="ascii">0 0.41 0  0 0 0  2.2 0 0  2.2 0.41 0  0.2404508497187474 0.2293892626146237 0  0.25 0.2 0  0.2404508497187474 0.1706107373853764 0  0.2154508497187474 0.1524471741852423 0  0.1845491502812526 0.1524471741852423 0  0.1595491502812526 0.1706107373853764 0  0.15 0.2 0  0.1595491502812526 0.2293892626146237 0  0.1845491502812527 0.2475528258147577 0  0.2154508497187474 0.2475528258147577 0  0.5951056516295153 0.2309016994374948 0  0.6 0.2 0  0.5951056516295153 0.1690983005625052 0  0.5809016994374947 0.1412214747707527 0  0.5587785252292473 0.1190983005625053 0  0.5309016994374948 0.1048943483704846 0  0.5 0.1 0  0.4690983005625052 0.1048943483704847 0  0.4412214747707527 0.1190983005625053 0  0.4190983005625052 0.1412214747707527 0  0.4048943483704846 0.1690983005625053 0  0.4 0.2 0  0.4048943483704847 0.2309016994374948 0  0.4190983005625052 0.2587785252292473 0  0.4412214747707527 0.2809016994374948 0  0.4690983005625053 0.2951056516295154 0  0.5 0.3 0  0.5309016994374948 0.2951056516295154 0  0.5587785252292473 0.2809016994374948 0  0.5809016994374947 0.2587785252292473 0  1.1 0 0  0 0.205 0  1.1 0.41 0  0.55 0 0  0.55 0.41 0  0.275 0 0  0.275 0.41 0  0.4125 0 0  0.4125 0.41 0  1.65 0.41 0  1.65 0 0  1.375 0 0  1.375 0.41 0  1.925 0 0  1.925 0.41 0  0.8250000000000001 0 0  0.8250000000000001 0.41 0  1.5125 0.205 0  1.7875 0.205 0  0.9625000000000001 0.205 0  1.2375 0.205 0  2.2 0.205 0  1.99375 0.2152743902439024 0  0.7815916808149406 0.1777281409168082 0  2.0625 0 0  0.6875 0.41 0  2.0625 0.41 0  2.2 0.3075 0  0.6875 0 0  1.7875 0.41 0  1.375 0.1486128048780488 0  1.5125 0 0  1.7875 0 0  1.5125 0.41 0  0.9625000000000001 0 0  0.9625000000000001 0.41 0  0.1375 0 0  0.1375 0.41 0  1.2375 0 0  1.1 0.1486128048780488 0  1.2375 0.41 0  1.65 0.1486128048780487 0  1.676715909090909 0.2793064024390244 0  1.126715909090909 0.2793064024390244 0  1.348284090909091 0.2793064024390244 0  0.7111837382351637 0.2844002487563727 0  1.894702181800738 0.1282910975492754 0  2.092797818199262 0.1282910975492754 0  1.85625 0.3075 0  0.89375 0.3075 0  0.89375 0.1025 0  0 0.3075 0  0 0.1025 0  2.099172119769978 0.25625 0  1.002356446954348 0.1010393851523063 0  1.99375 0.08395950269330846 0  1.459960956013612 0.3075 0  1.569025960719943 0.2986889805672169 0  1.03125 0.3278689922742084 0  0.3192727088781826 0.3079212096616675 0  1.959375 0.3126371951219512 0  1.749222215368287 0.1025 0  1.275777784631713 0.1025 0  2.2 0.1025 0  1.225938124459196 0.3075 0  1.550777784631713 0.1025 0  1.44375 0.07430640243902442 0  1.16875 0.07430640243902439 0  0.3437500000000001 0.07397709473011121 0  0.6911993143367559 0.1118123074367635 0  0.8057215702682121 0.2702269632945269 0  1.899250267340833 0.2229966846119207 0  0.8720458404074704 0.1913640704584042 0  0.8032958404074703 0.0888640704584041 0  0.6337831477789919 0.3348380330536306 0  0.1020898364287272 0.3140258291809757 0  1.766482954545455 0.2934032012195123 0  1.051658316544432 0.2265720188842194 0  0.2 0.3400647632937836 0  1.421109702350723 0.2261157654379721 0  0.61875 0 0  0.6878950265164463 0.199645915719726 0  0.098916018031319 0.09171660955420841 0  2.13125 0 0  2.118919042110979 0.3422084711244843 0  1.30625 0.41 0  0.20625 0 0  1.597888256393107 0.2173787389261347 0  0.7562500000000001 0.41 0  1.829299675393195 0.07400700849299596 0  1.71875 0.41 0  0.3225835293916391 0.1601701968669111 0  0.2606666398188512 0.0822552582932282 0  1.16875 0.41 0  2.038220665644273 0.332420740103091 0  0.176193934632343 0.0734896648625108 0  0.07390688010811153 0.1697064032433452 0  0.05452951551825875 0.25625 0  1.452769549894695 0.1548122580621249 0  1.369219062229598 0.07430640243902442 0  1.30625 0 0  1.075792183788687 0.07430640243902439 0  1.720943423819132 0.1714577452753128 0  1.157188124459196 0.205 0  1.304056576180868 0.1714577452753128 0  1.67579304192913 0.07430640243902437 0  0.7671326277666176 0.3352102652308781 0  0.3304630541488595 0.2342593631089261 0  1.209670467133757 0.136210026696477 0  0.7562500000000001 0 0  1.58125 0 0  0.9945036230615469 0.267761374151655 0  0.4812500000000001 0.41 0  0.06875000000000001 0.41 0  0 0.35875 0  0.9595378427479357 0.3376804103519943 0  0.34375 0.41 0  0.3897250743675729 0.3371889980614159 0  1.58125 0.41 0  1.631724228912893 0.3381867502687533 0  1.825608881788174 0.14499488549201 0  1.85625 0 0  1.44375 0 0  1.44375 0.41 0  1.85625 0.41 0  2.13125 0.41 0  0.89375 0 0  0.89375 0.41 0  0.20625 0.41 0  0.34375 0 0  0.4812500000000001 0 0  0.06875000000000001 0 0  0.61875 0.41 0  1.16875 0 0  1.03125 0.41 0  1.03125 0 0  1.71875 0 0  1.99375 0 0  1.99375 0.41 0  1.340625 0.3489494290853124 0  1.134375 0.3489494290853123 0  1.700180620188976 0.3438659752031281 0  1.033412357328477 0.1612902025713048 0  2.135782184673599 0.07126652247502523 0  1.668441847249787 0.2129203728327609 0  1.295782514339747 0.2378437748815763 0  0.6228574598132852 0.07671664390624158 0  1.409375 0.3520314716057996 0  2.129248544730567 0.1906135162504124 0  2.060771381434487 0.1989445750470348 0  2.013252586573865 0.1496169464686054 0  1.942766402200229 0.1734448904596831 0  1.895522487186454 0.06076163953489683 0  2.069553871656643 0.06605731020975725 0  1.274680914880868 0.3520219391081363 0  0.835055311278239 0.3424380136622334 0  0.7401021045332367 0.06543430142341211 0  1.614713220494657 0.09473434380863296 0  0.7520823699979313 0.2348229030472582 0  0.7043417970120415 0.3481429366232311 0  0.6546643048326494 0.2543538116156937 0  1.72990325744076 0.2380068107952482 0  1.356580098625191 0.2120393231351682 0  2.034370752044885 0.2668681600792073 0  1.51768709249349 0.3426260931494756 0  1.561883724969884 0.1650446847858835 0  0.2653439943239876 0.345171903972789 0  0.8330496081674507 0.1432136774486613 0  0.9281250000000001 0.05125000000000001 0  0.9330537010450736 0.2595558360668175 0  1.197344062229598 0.2523725417393646 0  1.804085235518364 0.3468178408964637 0  1.817887819205233 0.2589243285818559 0  1.905897727272727 0.3485060975609756 0  0.9485678863664097 0.1400383079249692 0  0.859375 0.05125 0  0 0.05125 0  0.4074403514301243 0.06423252630440013 0  0.5245798370136819 0.3551909831755992 0  0.7505241288352321 0.1253952068674773 0  0.2619923711861096 0.2853251789076993 0  0.8650169191207625 0.2527737409589524 0  1.192836486056382 0.3562350748565544 0  0.446875 0.3592802242693868 0  1.28257088594801 0.2944411014911587 0  1.474860187679412 0.2504218616229368 0  1.406767003493824 0.2829282258560709 0  1.845656689180403 0.1998310418452388 0  2.144958525570388 0.2909790873294231 0  2.2 0.15375 0  0.5843750000000001 0.3640402812892887 0  1.57794966442982 0.3540357145964566 0  0.6847665055715617 0.05605778745887328 0  0.637863756942103 0.1315837975700875 0  0.515625 0.04531250000000001 0  0.5718106469538725 0.0522410511374206 0  0.0496154796471391 0.333125 0  0.3662446794185922 0.2773760459259736 0  1.508991196088596 0.1421783375065625 0  0.09776612425612034 0.2204896805326566 0  1.50436820029908 0.06143401634903343 0  1.223857000523521 0.08235548624535324 0  1.153316824384777 0.1289850171317838 0  2.148922302309752 0.1258841779285271 0  1.621993280276081 0.2841214267927899 0  1.550118654119087 0.2461998729100966 0  1.327182649291491 0.1216967252533594 0  1.753125 0.04556020050186112 0  1.271875 0.04556020050186116 0  0.9824282234771738 0.05051969257615315 0  1.94956388244759 0.1180512551534177 0  1.949997712993411 0.04965831614304109 0  1.771961817615021 0.1530278789497521 0  1.909246823951428 0.2812757146784527 0  1.106872424375684 0.2277674570637181 0  1.948575539857022 0.2445328248721197 0  1.697271520964565 0.1233917627620729 0  1.065625 0.3689344961371042 0  1.085849084308977 0.3170853572226867 0  1.577403511714593 0.05463601888079143 0  0.05622663515370135 0.05493816910862376 0  1.751571320346033 0.3651102912045228 0  0.1583785085108421 0.2994699345738728 0  0.1455283439499995 0.3542795598723423 0  2.2 0.35875 0  0.4605652621775715 0.05075477778725031 0  0.1455852234589313 0.1166494778469164 0  0.3170871189130322 0.3624193665482365 0  1.466879772203159 0.3611261772912453 0  1.045297740100467 0.2779948725912803 0  1.990280163552011 0.3564754268533217 0  1.17471064520912 0.2990917256188288 0  0.8219886595034398 0.2165866596606327 0  0 0.25625 0  2.2 0.25625 0  2.2 0.05125 0  0 0.15375 0  1.853978576207987 0.35875 0  0.884510791938353 0.35875 0  1.000341183849677 0.3689344961371042 0  1.515638456102889 0.2882700110184686 0  0.09048297387599738 0.3637717362208066 0  2.150453692751374 0.2387066338105111 0  1.323782677156475 0.04897634338873398 0  1.409375 0.03715320121951221 0  1.406484531114799 0.1087852750766809 0  1.134375 0.03715320121951219 0  1.627401732573545 0.04552157221025036 0  0.2990651506063402 0.04656992046979862 0  0.3658138865510369 0.1250908110711949 0  2.045405893604797 0.1105340662939892 0  1.255408269734577 0.1577307500159216 0  0.7848198562432198 0.04176011905165711 0  2.028125 0.03707597992059326 0  0.04420832937638274 0.128125 0  0.1197849154434487 0.2663398672460083 0  0.2773440361767429 0.1325614896367195 0  1.248258025468107 0.2565907092181813 0  0.1300647302703173 0.0508462728378621 0  1.203125 0.03661323374043041 0  0.221416587416242 0.04909393590284095 0  2.072662025974815 0.2975086504196739 0  0.7309361959118756 0.1724117473133809 0  1.049057507569546 0.1150968098952652 0  1.029426696124534 0.0611707995214115 0  0.7592092911094858 0.2823604815974596 0  1.113520643506534 0.1031115419092917 0  1.887722846421017 0.1760882698830035 0  0.7976278545651526 0.3713969152554929 0  0.8476376957455005 0.2968044376629371 0  1.472640588990488 0.1118278026240017 0  1.865937103925594 0.2604137786483804 0  1.463913572748262 0.2030442564990043 0  0.2154602920799496 0.2951006307678045 0  1.376426316059077 0.3186741374914345 0  0.928125000000
[...]
<PointData  Vectors="f_37"> 
<DataArray  type="Float64"  Name="f_37"  NumberOfComponents="3" format="ascii">-7.3258701605568638e-07 -4.2120938478802915e-07 0.0000000000000000e+00  6.2804439409222628e-07 -7.3109765115969475e-07 0.0000000000000000e+00  -6.9197281345178066e-05 -6.5265734760844090e-07 0.0000000000000000e+00  -6.9230337851941342e-05 1.2028473525346120e-06 0.0000000000000000e+00  -8.4871085285772166e-07 -3.6707194948098286e-05 0.0000000000000000e+00  -1.2581652907895807e-05 -2.3297288407357963e-05 0.0000000000000000e+00  -2.4600647908191733e-05 -5.4635951989562361e-07 0.0000000000000000e+00  1.7838872619767570e-05 -8.4565529459137287e-06 0.0000000000000000e+00  8.0878239871432932e-06 -1.4313105561394915e-05 0.0000000000000000e+00  -8.2079477961237684e-06 -7.2661814874494470e-06 0.0000000000000000e+00  1.0593301542306632e-06 -7.1147854854626162e-06 0.0000000000000000e+00  -8.8109617901466965e-06 -7.1348709061431107e-06 0.0000000000000000e+00  -2.1787269758972548e-05 -6.8893544605992115e-06 0.0000000000000000e+00  -1.4435007168591656e-05 -7.1579655007527384e-06 0.0000000000000000e+00  -3.0268385752429134e-05 -4.9034175653684399e-05 0.0000000000000000e+00  -1.0950088217690546e-01 4.8162763421795554e-02 0.0000000000000000e+00  -6.1825441375308886e-05 -8.7933014016433074e-05 0.0000000000000000e+00  -9.8709489076239637e-05 -1.0227309250639576e-04 0.0000000000000000e+00  -1.5725572111960711e-04 -8.6573451422447382e-05 0.0000000000000000e+00  -3.5670886329157556e-04 7.0008671607975828e-05 0.0000000000000000e+00  2.6929417100917812e+00 1.1736332117904902e+00 0.0000000000000000e+00  2.2704046310490519e-04 2.7368069855803536e-04 0.0000000000000000e+00  -2.1438458942790663e-04 -1.3114017637112020e-04 0.0000000000000000e+00  3.1892676265556140e-05 -4.0520677559781181e-05 0.0000000000000000e+00  1.1373553356128474e-04 -1.2571119260954114e-04 0.0000000000000000e+00  -4.1984710008867271e-01 -4.1940099172124262e-01 0.0000000000000000e+00  -1.2167487789818553e-04 -1.5379259216609904e-04 0.0000000000000000e+00  -2.7617897118429040e-04 -1.4822953146894445e-04 0.0000000000000000e+00  -5.3567153469213816e-05 4.3603754671211938e-05 0.0000000000000000e+00  -5.5113734823904089e-06 2.4839740402954960e-05 0.0000000000000000e+00  1.4345671371914315e+00 -5.2757451328642258e-01 0.0000000000000000e+00  -8.4668957615615395e-05 1.8525038895224687e-05 0.0000000000000000e+00  -6.4479513380395301e-05 2.2309119079716051e-05 0.0000000000000000e+00  -3.9636978075796282e-05 2.0117802609570037e-05 0.0000000000000000e+00  -7.0425479931647854e-05 1.4320921000159881e-06 0.0000000000000000e+00  1.5000024908376446e+00 -4.6711702638763823e-06 0.0000000000000000e+00  -6.6170137338875134e-05 -2.9717694369732071e-07 0.0000000000000000e+00  -1.5335143305882513e-04 2.3869084824014509e-06 0.0000000000000000e+00  -6.2214654492871951e-05 1.2691324849032905e-06 0.0000000000000000e+00  3.1562465291439452e-05 -5.0235663005257531e-06 0.0000000000000000e+00  -2.0255532418318497e-06 2.9862072284343770e-07 0.0000000000000000e+00  4.2025861276267311e-05 7.9080768035836086e-06 0.0000000000000000e+00  -8.2004070757319054e-05 -2.2875350540271771e-06 0.0000000000000000e+00  -6.8017247400572681e-05 9.4576297754406606e-07 0.0000000000000000e+00  -6.7807698850522410e-05 8.4022022248217711e-07 0.0000000000000000e+00  -6.7494636508791611e-05 7.6480855252175617e-08 0.0000000000000000e+00  -6.6113874986935793e-05 4.4726384076191101e-07 0.0000000000000000e+00  -6.7048535488706314e-05 -4.1878119074669424e-07 0.0000000000000000e+00  -6.9750635435643964e-05 1.4750506792906104e-06 0.0000000000000000e+00  -9.5324244250110166e-05 -4.5555346756160206e-07 0.0000000000000000e+00  -8.8945504680269563e-05 -1.9381493832783137e-06 0.0000000000000000e+00  9.3855283482490104e-01 -1.1647117233065686e-04 0.0000000000000000e+00  9.3852177539047799e-01 -4.6806202918145298e-05 0.0000000000000000e+00  9.3798198365729191e-01 -2.0774300229201351e-02 0.0000000000000000e+00  9.3862936691932730e-01 -1.5997117718238500e-03 0.0000000000000000e+00  9.3855885144396001e-01 7.1162521401717490e-05 0.0000000000000000e+00  9.3851320422682405e-01 3.8990467762066080e-06 0.0000000000000000e+00  6.9194100452873675e-01 3.5060900015691669e-02 0.0000000000000000e+00  -7.0308187782248523e-05 -3.7008933131822272e-07 0.0000000000000000e+00  -4.6986138179022912e-05 1.8263953406835823e-06 0.0000000000000000e+00  -7.1052630514836437e-05 4.6303809415489967e-08 0.0000000000000000e+00  9.3832693094705100e-01 1.4431202912227283e-05 0.0000000000000000e+00  -8.6999397183429834e-05 -3.5814153546751426e-06 0.0000000000000000e+00  -6.9085064801261125e-05 6.4815371356604852e-07 0.0000000000000000e+00  9.3838729331166260e-01 -3.5002775755045394e-04 0.0000000000000000e+00  -6.5650797214107808e-05 4.3488801518317606e-07 0.0000000000000000e+00  -6.9295217915579265e-05 -7.2314947274687967e-07 0.0000000000000000e+00  -6.6879651146454445e-05 -5.7536845008158371e-07 0.0000000000000000e+00  -7.0893803002269198e-05 1.5663482992723854e-06 0.0000000000000000e+00  -6.9522404534421860e-05 -4.8075005857085808e-07 0.0000000000000000e+00  3.9799478183673466e-06 6.7741587809804562e-07 0.0000000000000000e+00  -8.5269129427452604e-06 -1.0317906743459040e-06 0.0000000000000000e+00  -6.8446255898271636e-05 5.2054514332218645e-07 0.0000000000000000e+00  9.3604729833608380e-01 -5.2221863143700718e-03 0.0000000000000000e+00  -6.8315552777678583e-05 -5.1038065401781420e-07 0.0000000000000000e+00  9.3847980952367138e-01 -4.3935174993742491e-05 0.0000000000000000e+00  9.3850950107808895e-01 -3.6443632362023913e-05 0.0000000000000000e+00  9.4148817562504183e-01 -3.2284140837480109e-03 0.0000000000000000e+00  9.3890318620640789e-01 -4.0521184793430084e-04 0.0000000000000000e+00  1.5102831860117985e+00 -6.2610210906110475e-01 0.0000000000000000e+00  9.3856863973624249e-01 -7.1183373227663631e-05 0.0000000000000000e+00  9.3847602302084943e-01 6.7871672827119189e-05 0.0000000000000000e+00  9.3842330795106899e-01 1.1114849925549042e-04 0.0000000000000000e+00  9.8971961032043043e-01 -2.2490895570877356e-02 0.0000000000000000e+00  9.2206055515542851e-01 -1.4428028321555545e-02 0.0000000000000000e+00  1.1249978797251754e+00 -3.3968666640279371e-06 0.0000000000000000e+00  1.1250041217354283e+00 -3.9271994283131891e-06 0.0000000000000000e+00  9.3860158904195845e-01 2.7856812051572597e-05 0.0000000000000000e+00  9.2864468765052810e-01 -8.8750742339797437e-03 0.0000000000000000e+00  9.3809371794313967e-01 3.7043292522254213e-05 0.0000000000000000e+00  9.3861786546324555e-01 1.3966201772195767e-05 0.0000000000000000e+00  9.3839872746182729e-01 -4.7999132111948435e-05 0.0000000000000000e+00  9.4733156101610116e-01 -3.2409464390219227e-03 0.0000000000000000e+00  2.0080793474971279e+00 8.6367055793867067e-03 0.0000000000000000e+00  9.3854243640242652e-01 5.9193313356448691e-06 0.0000000000000000e+00  9.3804685311566993e-01 -6.7858573714157114e-05 0.0000000000000000e+00  9.3739803048126868e-01 -6.3237507022601632e-04 0.0000000000000000e+00  9.3821337090720580e-01 1.2444724881020036e-04 0.0000000000000000e+00  9.4002023084465836e-01 -9.8353966624904797e-04 0.0000000000000000e+00  9.3828057010353627e-01 1.0225376765579277e-05 0.0000000000000000e+00  9.3664919419250292e-01 -2.2556111059349131e-04 0.0000000000000000e+00  9.3367132820629251e-01 -1.2957131604775525e-03 0.0000000000000000e+00  2.0719570820436761e+00 -1.6225682211070455e-01 0.0000000000000000e+00  1.4389960740907288e+00 4.1707345754798969e-01 0.0000000000000000e+00  1.0348453198471208e+00 -2.0733243129901735e-01 0.0000000000000000e+00  9.3850737251888117e-01 2.5292500590045679e-06 0.0000000000000000e+00  9.0967086195679636e-01 -4.2257148308793673e-02 0.0000000000000000e+00  9.8781897772410499e-01 1.7280777815183600e-03 0.0000000000000000e+00  1.8611875084049001e+00 -2.8751944615702330e-01 0.0000000000000000e+00  1.1923680617493575e+00 2.7187322575093481e-01 0.0000000000000000e+00  9.3861693616213226e-01 -9.1789471605491094e-05 0.0000000000000000e+00  9.4089227896276650e-01 -8.6854194324000270e-03 0.0000000000000000e+00  1.4249602993474386e+00 2.4085834787063992e-01 0.0000000000000000e+00  9.3862450579619872e-01 -2.2942321199422881e-04 0.0000000000000000e+00  -1.2779152959617487e-04 -6.0513918311981370e-06 0.0000000000000000e+00  -4.0868613921715363e-01 6.6430522617636892e-02 0.0000000000000000e+00  1.1365158643832654e+00 -2.5799261494060638e-01 0.0000000000000000e+00  -6.9349102477519393e-05 2.3263173859944468e-07 0.0000000000000000e+00  9.3467021037235465e-01 3.8160795515515550e-04 0.0000000000000000e+00  -6.9823301053978146e-05 -1.5874853982476638e-06 0.0000000000000000e+00  1.0927727615924786e-05 -1.0221794768197600e-06 0.0000000000000000e+00  9.3851355141669024e-01 -4.7683478737770710e-05 0.0000000000000000e+00  -4.7894457086369533e-05 -5.6069538686267042e-06 0.0000000000000000e+00  9.3681671910851538e-01 -8.4548407960592314e-05 0.0000000000000000e+00  -7.2379130148541120e-05 -1.1415049907370708e-06 0.0000000000000000e+00  -3.9068960128500901e-01 -1.5437755015488863e-01 0.0000000000000000e+00  1.8537590767279817e+00 -3.2076544070133911e-01 0.0000000000000000e+00  -6.7697286836602768e-05 9.5740861315884893e-08 0.0000000000000000e+00  9.3722187442280969e-01 8.8984637336979637e-06 0.0000000000000000e+00  1.3669721886772956e+00 -3.3924959919619690e-01 0.0000000000000000e+00  1.3332173978906254e+00 -1.0660923716656392e-01 0.0000000000000000e+00  1.3740089192597660e+00 1.3923510301178288e-01 0.0000000000000000e+00  9.3845826950949440e-01 -1.9770300228104550e-04 0.0000000000000000e+00  9.3579601971532056e-01 -2.4671232592902233e-04 0.0000000000000000e+00  -6.6920907032637844e-05 -3.5624485864166257e-07 0.0000000000000000e+00  9.2968674674001539e-01 -3.6877977427051765e-03 0.0000000000000000e+00  9.3846743485125350e-01 -5.1503270554474831e-05 0.0000000000000000e+00  9.3873207176497364e-01 -3.4036499440636479e-03 0.0000000000000000e+00  9.3833820847749649e-01 -7.8602268971705749e-04 0.0000000000000000e+00  9.3617113472094082e-01 -3.1806715014924845e-04 0.0000000000000000e+00  1.3281041810290422e+00 -1.2567120404347817e-01 0.0000000000000000e+00  3.0317303240221173e-02 -1.9831686919792996e-01 0.0000000000000000e+00  9.3726041574083674e-01 -1.7529233332200850e-03 0.0000000000000000e+00  -1.0701158324134594e-04 1.2039462505431911e-06 0.0000000000000000e+00  -6.5456990129056901e-05 -1.8046787699628232e-07 0.0000000000000000e+00  9.4830168907963652e-01 -1.2607511796905467e-02 0.0000000000000000e+00  -6.8679476079667873e-05 7.5857299653942617e-07 0.0000000000000000e+00  -3.7953264477544199e-06 -1.0867469621384403e-06 0.0000000000000000e+00  6.5625157381202071e-01 -2.1981439955852695e-06 0.0000000000000000e+00  9.5728016205592514e-01 -2.4369675014712343e-03 0.0000000000000000e+00  -2.1107787431793191e-05 -4.8122575763703397e-06 0.0000000000000000e+00  1.6329316384649646e+00 1.6360468166126696e-01 0.0000000000000000e+00  -6.9705754096138192e-05 -5.9913623148193543e-07 0.0000000000000000e+00  9.3604261356970953e-01 1.6760792004827878e-04 0.0000000000000000e+00  9.3854974717262818e-01 -2.3770828010868676e-05 0.0000000000000000e+00  -6.9449805827200464e-05 2.9424167753664822e-07 0.0000000000000000e+00  -7.2822281803289879e-05 -7.2755284174452355e-08 0.0000000000000000e+00  -6.7566329596310785e-05 -3.2309132021257963e-07 0.0000000000000000e+00  -6.9605152637120400e-05 -1.4581718604833209e-06 0.0000000000000000e+00  -7.1269754569230895e-05 -1.2557783962576340e-08 0.0000000000000000e+00  -7.8394882216624659e-05 -6.8337776685081560e-07 0.0000000000000000e+00  -7.2170398327732488e-05 -7.3555208206877921e-07 0.0000000000000000e+00  -4.5071266080674894e-06 2.3240512316095970e-07 0.0000000000000000e+00  7.1620769443173532e-05 -2.6697011257861327e-06 0.0000000000000000e+00  -9.4526358717351067e-05 3.5781708923653900e-05 0.0000000000000000e+00  1.0920775504166388e-06 -2.3914688568136992e-08 0.0000000000000000e+00  -5.6664360548656067e-05 7.1859447894964905e-07 0.0000000000000000e+00  -6.6820479470119316e-05 -6.5688066185648473e-07 0.0000000000000000e+00  -6.9685128445321742e-05 2.2469132226633989e-07 0.0000000000000000e+00  -7.2656711069960146e-05 -2.5090525607169992e-07 0.0000000000000000e+00  -7.0976761705248578e-05 1.2287208955364610e-06 0.0000000000000000e+00  -6.9333111762845935e-05 -3.3282517959594642e-08 0.0000000000000000e+00  -7.1423294572049205e-05 -1.4311195085698067e-06 0.0000000000000000e+00  9.2827064303378182e-01 7.3257350265163980e-05 0.0000000000000000e+00  9.3321736542930578e-01 -8.7519704404547265e-04 0.0000000000000000e+00  9.3293084826250339e-01 1.6698260352068949e-04 0.0000000000000000e+00  9.3510216698246329e-01 -9.8283589551640960e-03 0.0000000000000000e+00  9.3561134254436340e-01 6.0038885657490458e-06 0.0000000000000000e+00  9.3852367032297168e-01 -5.9217310538270607e-05 0.0000000000000000e+00  9.3889886159665503e-01 -8.7883241807950913e-04 0.0000000000000000e+00  1.7704773074630396e+00 3.3018929287140691e-01 0.0000000000000000e+00  9.2602263231366799e-01 4.3934317746975663e-04 0.0000000000000000e+00  9.3853263407703458e-01 4.0229291035116407e-05 0.0000000000000000e+00  9.3849500022796073e-01 1.7474255156444478e-05 0.0000000000000000e+00  9.3847879036682913e-01 2.5314552910093400e-05 0.0000000000000000e+00  9.3851239135180231e-01 -6.2634703843478836e-06 0.0000000000000000e+00  9.2852826088656792e-01 -2.4441772768356659e-04 0.0000000000000000e+00  9.3313475308883254e-01 -5.1855858966124910e-05 0.0000000000000000e+00  9.2719633864537065e-01 -3.9709569367720982e-05 0.0000000000000000e+00  1.0451509996253090e+00 2.3393756381505735e-02 0.0000000000000000e+00  1.1408286053729184e+00 1.6897503054075245e-02 0.0000000000000000e+00  9.3828011295870328e-01 -8.0554172887853151e-05 0.0000000000000000e+00  6.6962985281522414e-01 -4.5800501161702117e-01 0.0000000000000000e+00  1.5761358792712052e+00 -2.7714273458877048e-01 0.0000000000000000e+00  4.4195821581237132e-01 8.9571385252247629e-02 0.0000000000000000e+00  9.3853933102426645e-01 -5.5558165927313324e-05 0.0000000000000000e+00  9.3866129821954891e-01 -4.9153907862724635e-04 0.0000000000000000e+00  9.3860855533416765e-01 -6.0999042477375790e-06 0.0000000000000000e+00  9.3381384926392308e-01 3.1740653154748257e-04 0.0000000000000000e+00  9.3845906758810582e-01 -5.9133019938101935e-05 0.0000000000000000e+00  1.6085977355068410e+00 1.2473562165205702e-01 0.0000000000000000e+00  8.9746665928613301e-01 1.0680645319154291e-02 0.0000000000000000e+00  8.9081988940348666e-01 -1.1056648087370776e-02 0.0000000000000000e+00  9.5450742563345492e-01 -2.7858264587729314e-02 0.0000000000000000e+00  9.3963521348963863e-01 -2.0587027732850895e-03 0.0000000000000000e+00  9.3204207186791543e-01 8.9101063336549316e-05 0.0000000000000000e+00  9.3850745471517061e-01 -8.7403178843020512e-06 0.0000000000000000e+00  9.2967322200710756e-01 5.1036645661654754e-05 0.0000000000000000e+00  9.2718876701277086e-01 -1.6517938583861164e-02 0.0000000000000000e+00  8.8405886474813222e-01 -2.1614322555228223e-02 0.0000000000000000e+00  6.5624968034491304e-01 -1.8703510112568858e-06 0.0000000000000000e+00  2.1032411724530200e+00 -2.0491352920662079e-01 0.0000000000000000e+00  1.9584338371375873e+00 -1.0832228543305070e-01 0.0000000000000000e+00  1.0481168915236216e+00 2.5496153594590915e-01 0.0000000000000000e+00  1.9797038061011789e+00 2.6328578694682353e-01 0.0000000000000000e+00  9.5970571297180918e-01 -7.8153368734149159e-02 0.0000000000000000e+00  9.2079520253184521e-01 -4.5802500855321953e-04 0.0000000000000000e+00  1.8072924566593904e+00 1.6945009509489772e-01 0.0000000000000000e+00  9.3932961089844558e-01 -6.7347745345165840e-04 0.0000000000000000e+00  9.3856989873278229e-01 -9.5372882165093342e-05 0.0000000000000000e+00  9.3876956079866691e-01 -1.5049882097848243e-04 0.0000000000000000e+00  9.3849967383065580e-01 -1.8239522424848647e-05 0.0000000000000000e+00  9.3862928871542861e-01 9.5311975233374941e-05 0.0000000000000000e+00  9.3865050681969875e-01 1.2711369083570653e-04 0.0000000000000000e+00  1.8439584763649972e+00 -1.8592626882571708e-01 0.0000000000000000e+00  9.2320930255504707e-01 -1.1313642567420919e-04 0.0000000000000000e+00  1.2769628314227717e+00 1.4306978419016383e-01 0.0000000000000000e+00  8.6725738481605219e-01 2.5757048285377787e-01 0.0000000000000000e+00  2.0256060533465954e+00 3.2181443923551489e-01 0.0000000000000000e+00  1.8133757749883519e+00 2.9247428876306086e-01 0.0000000000000000e+00  9.4379704884505511e-01 1.0210463873198732e-01 0.0000000000000000e+00  1.4735806101365585e+00 -3.0297757883930748e-01 0.0000000000000000e+00  9.3838703845700855e-01 -1.0707403813974672e-04 0.0000000000000000e+00  1.2227941598238372e+00 1.8560952027524308e-01 0.0000000000000000e+00  9.3022896847321745e-01 -5.1807780455818736e-04 0.0000000000000000e+00  9.3591741121860783e-01 -9.7652433268735140e-04 0.0000000000000000e+00  9.3632104835035090e-01 -2.8976393152090876e-03 0.0000000000000000e+00  9.3849680598503571e-01 5.6223288451501969e-05 0.0000000000000000e+00  9.3856078132574960e-01 -5.6399860590251879e-05 0.0000000000000000e+00  9.3848853792179909e-01 -5.8824654953724289e-05 0.0000000000000000e+00  9.3798525982486369e-01 -3.9456601276768069e-04 0.0000000000000000e+00  8.9215633858387822e-01 3.2618142521852856e-04 0.0000000000000000e+00  8.9089453714510758e-01 -3.5298923303078570e-04 0.0000000000000000e+00  8.9528034217573926e-01 -5.5035039250540558e-03 0.0000000000000000e+00  9.3850869519957525e-01 -1.0799228655085413e-05 0.0000000000000000e+00  9.0538099768337821e-01 -1.2491299172691755e-04 0.0000000000000000e+00  9.3851019292114179e-01 -1.0404253712901449e-05 0.0000000000000000e+00  9.3858292277625921e-01 1.0702013802813524e-05 0.0000000000000000e+00  9.4001943575259594e-01 -5.1723843369337035e-03 0.0000000000000000e+00  9.3850508524690379e-01 -6.7181567328646585e-06 0.0000000000000000e+00  9.3841786332171151e-01 -5.6345736399013860e-05 0.0000000000000000e+00  8.7187557539447680e-01 6.3293746005655522e-04 0.0000000000000000e+00  9.4408715064321214e-01 -2.7282166894465275e-03 0.0000000000000000e+00  9.1942927317742507e-01 1.9962174274682916e-04 0.0000000000000000e+00  7.3760599045110875e-01 -8.0114763605286035e-02 0.0000000000000000e+00  8.8840664468183705e-01 -8.1644890243881627e-04 0.0000000000000000e+00  1.5440164448855258e+00 5.0371757803565054e-01 0.0000000000000000e+00  1.0269049542499731e+00 1.9308491285461629e-01 0.0000000000000000e+00  9.1171317847914546e-01 2.9579006504997738e-04 0.0000000000000000e+00  2.2529459697243905e+00 6.9836349351416341e-03 0.0000000000000000e+00  1.4338991104524506e+00 -5.7294681844016671e-01 0.0000000000000000e+00  1.4523813244114636e+00 5.1578130380289841e-02 0.0000000000000000e+00  9.0509940738596317e-01 4.3155058178468911e-04 0.0000000000000000e+00  9.4509128090873895e-01 -6.8655100139235975e-03 0.0000000000000000e+00  9.1824443461215066e-01 3.0985850867809800e-04 0.0000000000000000e+00  9.4075999216810247e-01 -1.7298066820996215e-03 0.0000000000000000e+00  8.5997148824491310e-01 -1.1334828207178954e-01 0.0000000000000000e+00  1.4062546550276824e+00 -4.0444809153476337e-06 0.0000000000000000e+00  9.3859084256490122e-01 -1.4177819787826259e-05 0.0000000000000000e+00  9.1191735751372205e-01 -7.6967592210148961e-04 0.0000000000000000e+00  1.4062509648160142e+00 -4.6236504290678515e-06 0.0000000000000000e+00  9.1244927090781769e-01 5.2475365476786111e-04 0.0000000000000000e+00  9.4087858765779064e-01 1.4440110907452416e-02 0.0000000000000000e+00  8.7479674005144115e-01 6.5740934495336965e-04 0.0000000000000000e+00  9.3855199754963547e-01 -3.0730616175199655e-05 0.0000000000000000e+00  7.2258926627830145e-01 1.0659213938890821e-01 0.0000000000000000e+00  9.3855041279850104e-01 4.2921673084918575e-05 0.0000000000000000e+00  9.0483009233250244e-01 1.2890269378389702e-04 0.0000000000000000e+00  8.3829456603193464e-01 -2.8926578828418118e-04 0.0000000000000000e+00  9.3830801844203227e-01 -2.3078544071085117e-04 0.0000000000000000e+00  8.3576653244022681e-01 -9.416379513