<?xml version="1.0"?>
<VTKFile type="UnstructuredGrid"  version="0.1"  >
<UnstructuredGrid>
<Piece  NumberOfPoints="2362" NumberOfCells="4391">
<Points>
<DataArray  type="Float64"  NumberOfComponents="3"  format="ascii">0 0.41 0  0 0 0  2.2 0 0  2.2 0.41 0  0.2404508497187474 0.2293892626146237 0  0.25 0.2 0  0.2404508497187474 0.1706107373853764 0  0.2154508497187474 0.1524471741852423 0  0.1845491502812526 0.1524471741852423 0  0.1595491502812526 0.1706107373853764 0  0.15 0.2 0  0.1595491502812526 0.2293892626146237 0  0.1845491502812527 0.2475528258147577 0  0.2154508497187474 0.2475528258147577 0  0.5951056516295153 0.2309016994374948 0  0.6 0.2 0  0.5951056516295153 0.1690983005625052 0  0.5809016994374947 0.1412214747707527 0  0.5587785252292473 0.1190983005625053 0  0.5309016994374948 0.1048943483704846 0  0.5 0.1 0  0.4690983005625052 0.1048943483704847 0  0.4412214747707527 0.1190983005625053 0  0.4190983005625052 0.1412214747707527 0  0.4048943483704846 0.1690983005625053 0  0.4 0.2 0  0.4048943483704847 0.2309016994374948 0  0.4190983005625052 0.2587785252292473 0  0.4412214747707527 0.2809016994374948 0  0.4690983005625053 0.2951056516295154 0  0.5 0.3 0  0.5309016994374948 0.2951056516295154 0  0.5587785252292473 0.2809016994374948 0  0.5809016994374947 0.2587785252292473 0  1.1 0 0  0 0.205 0  1.1 0.41 0  0.55 0 0  0.55 0.41 0  0.275 0 0  0.275 0.41 0  0.4125 0 0  0.4125 0.41 0  1.65 0.41 0  1.65 0 0  1.375 0 0  1.375 0.41 0  1.925 0 0  1.925 0.41 0  0.8250000000000001 0 0  0.8250000000000001 0.41 0  1.5125 0.205 0  1.7875 0.205 0  0.9625000000000001 0.205 0  1.2375 0.205 0  2.2 0.205 0  1.99375 0.2152743902439024 0  0.7815916808149406 0.1777281409168082 0  2.0625 0 0  0.6875 0.41 0  2.0625 0.41 0  2.2 0.3075 0  0.6875 0 0  1.7875 0.41 0  1.375 0.1486128048780488 0  1.5125 0 0  1.7875 0 0  1.5125 0.41 0  0.9625000000000001 0 0  0.9625000000000001 0.41 0  0.1375 0 0  0.1375 0.41 0  1.2375 0 0  1.1 0.1486128048780488 0  1.2375 0.41 0  1.65 0.1486128048780487 0  1.676715909090909 0.2793064024390244 0  1.126715909090909 0.2793064024390244 0  1.348284090909091 0.2793064024390244 0  0.7111837382351637 0.2844002487563727 0  1.894702181800738 0.1282910975492754 0  2.092797818199262 0.1282910975492754 0  1.85625 0.3075 0  0.89375 0.3075 0  0.89375 0.1025 0  0 0.3075 0  0 0.1025 0  2.099172119769978 0.25625 0  1.002356446954348 0.1010393851523063 0  1.99375 0.08395950269330846 0  1.459960956013612 0.3075 0  1.569025960719943 0.2986889805672169 0  1.03125 0.3278689922742084 0  0.3192727088781826 0.3079212096616675 0  1.959375 0.3126371951219512 0  1.749222215368287 0.1025 0  1.275777784631713 0.1025 0  2.2 0.1025 0  1.225938124459196 0.3075 0  1.550777784631713 0.1025 0  1.44375 0.07430640243902442 0  1.16875 0.07430640243902439 0  0.3437500000000001 0.07397709473011121 0  0.6911993143367559 0.1118123074367635 0  0.8057215702682121 0.2702269632945269 0  1.899250267340833 0.2229966846119207 0  0.8720458404074704 0.1913640704584042 0  0.8032958404074703 0.0888640704584041 0  0.6337831477789919 0.3348380330536306 0  0.1020898364287272 0.3140258291809757 0  1.766482954545455 0.2934032012195123 0  1.051658316544432 0.2265720188842194 0  0.2 0.3400647632937836 0  1.421109702350723 0.2261157654379721 0  0.61875 0 0  0.6878950265164463 0.199645915719726 0  0.098916018031319 0.09171660955420841 0  2.13125 0 0  2.118919042110979 0.3422084711244843 0  1.30625 0.41 0  0.20625 0 0  1.597888256393107 0.2173787389261347 0  0.7562500000000001 0.41 0  1.829299675393195 0.07400700849299596 0  1.71875 0.41 0  0.3225835293916391 0.1601701968669111 0  0.2606666398188512 0.0822552582932282 0  1.16875 0.41 0  2.038220665644273 0.332420740103091 0  0.176193934632343 0.0734896648625108 0  0.07390688010811153 0.1697064032433452 0  0.05452951551825875 0.25625 0  1.452769549894695 0.1548122580621249 0  1.369219062229598 0.07430640243902442 0  1.30625 0 0  1.075792183788687 0.07430640243902439 0  1.720943423819132 0.1714577452753128 0  1.157188124459196 0.205 0  1.304056576180868 0.1714577452753128 0  1.67579304192913 0.07430640243902437 0  0.7671326277666176 0.3352102652308781 0  0.3304630541488595 0.2342593631089261 0  1.209670467133757 0.136210026696477 0  0.7562500000000001 0 0  1.58125 0 0  0.9945036230615469 0.267761374151655 0  0.4812500000000001 0.41 0  0.06875000000000001 0.41 0  0 0.35875 0  0.9595378427479357 0.3376804103519943 0  0.34375 0.41 0  0.3897250743675729 0.3371889980614159 0  1.58125 0.41 0  1.631724228912893 0.3381867502687533 0  1.825608881788174 0.14499488549201 0  1.85625 0 0  1.44375 0 0  1.44375 0.41 0  1.85625 0.41 0  2.13125 0.41 0  0.89375 0 0  0.89375 0.41 0  0.20625 0.41 0  0.34375 0 0  0.4812500000000001 0 0  0.06875000000000001 0 0  0.61875 0.41 0  1.16875 0 0  1.03125 0.41 0  1.03125 0 0  1.71875 0 0  1.99375 0 0  1.99375 0.41 0  1.340625 0.3489494290853124 0  1.134375 0.3489494290853123 0  1.700180620188976 0.3438659752031281 0  1.033412357328477 0.1612902025713048 0  2.135782184673599 0.07126652247502523 0  1.668441847249787 0.2129203728327609 0  1.295782514339747 0.2378437748815763 0  0.6228574598132852 0.07671664390624158 0  1.409375 0.3520314716057996 0  2.129248544730567 0.1906135162504124 0  2.060771381434487 0.1989445750470348 0  2.013252586573865 0.1496169464686054 0  1.942766402200229 0.1734448904596831 0  1.895522487186454 0.06076163953489683 0  2.069553871656643 0.06605731020975725 0  1.274680914880868 0.3520219391081363 0  0.835055311278239 0.3424380136622334 0  0.7401021045332367 0.06543430142341211 0  1.614713220494657 0.09473434380863296 0  0.7520823699979313 0.2348229030472582 0  0.7043417970120415 0.3481429366232311 0  0.6546643048326494 0.2543538116156937 0  1.72990325744076 0.2380068107952482 0  1.356580098625191 0.2120393231351682 0  2.034370752044885 0.2668681600792073 0  1.51768709249349 0.3426260931494756 0  1.561883724969884 0.1650446847858835 0  0.2653439943239876 0.345171903972789 0  0.8330496081674507 0.1432136774486613 0  0.9281250000000001 0.05125000000000001 0  0.9330537010450736 0.2595558360668175 0  1.197344062229598 0.2523725417393646 0  1.804085235518364 0.3468178408964637 0  1.817887819205233 0.2589243285818559 0  1.905897727272727 0.3485060975609756 0  0.9485678863664097 0.1400383079249692 0  0.859375 0.05125 0  0 0.05125 0  0.4074403514301243 0.06423252630440013 0  0.5245798370136819 0.3551909831755992 0  0.7505241288352321 0.1253952068674773 0  0.2619923711861096 0.2853251789076993 0  0.8650169191207625 0.2527737409589524 0  1.192836486056382 0.3562350748565544 0  0.446875 0.3592802242693868 0  1.28257088594801 0.2944411014911587 0  1.474860187679412 0.2504218616229368 0  1.406767003493824 0.2829282258560709 0  1.845656689180403 0.1998310418452388 0  2.144958525570388 0.2909790873294231 0  2.2 0.15375 0  0.5843750000000001 0.3640402812892887 0  1.57794966442982 0.3540357145964566 0  0.6847665055715617 0.05605778745887328 0  0.637863756942103 0.1315837975700875 0  0.515625 0.04531250000000001 0  0.5718106469538725 0.0522410511374206 0  0.0496154796471391 0.333125 0  0.3662446794185922 0.2773760459259736 0  1.508991196088596 0.1421783375065625 0  0.09776612425612034 0.2204896805326566 0  1.50436820029908 0.06143401634903343 0  1.223857000523521 0.08235548624535324 0  1.153316824384777 0.1289850171317838 0  2.148922302309752 0.1258841779285271 0  1.621993280276081 0.2841214267927899 0  1.550118654119087 0.2461998729100966 0  1.327182649291491 0.1216967252533594 0  1.753125 0.04556020050186112 0  1.271875 0.04556020050186116 0  0.9824282234771738 0.05051969257615315 0  1.94956388244759 0.1180512551534177 0  1.949997712993411 0.04965831614304109 0  1.771961817615021 0.1530278789497521 0  1.909246823951428 0.2812757146784527 0  1.106872424375684 0.2277674570637181 0  1.948575539857022 0.2445328248721197 0  1.697271520964565 0.1233917627620729 0  1.065625 0.3689344961371042 0  1.085849084308977 0.3170853572226867 0  1.577403511714593 0.05463601888079143 0  0.05622663515370135 0.05493816910862376 0  1.751571320346033 0.3651102912045228 0  0.1583785085108421 0.2994699345738728 0  0.1455283439499995 0.3542795598723423 0  2.2 0.35875 0  0.4605652621775715 0.05075477778725031 0  0.1455852234589313 0.1166494778469164 0  0.3170871189130322 0.3624193665482365 0  1.466879772203159 0.3611261772912453 0  1.045297740100467 0.2779948725912803 0  1.990280163552011 0.3564754268533217 0  1.17471064520912 0.2990917256188288 0  0.8219886595034398 0.2165866596606327 0  0 0.25625 0  2.2 0.25625 0  2.2 0.05125 0  0 0.15375 0  1.853978576207987 0.35875 0  0.884510791938353 0.35875 0  1.000341183849677 0.3689344961371042 0  1.515638456102889 0.2882700110184686 0  0.09048297387599738 0.3637717362208066 0  2.150453692751374 0.2387066338105111 0  1.323782677156475 0.04897634338873398 0  1.409375 0.03715320121951221 0  1.406484531114799 0.1087852750766809 0  1.134375 0.03715320121951219 0  1.627401732573545 0.04552157221025036 0  0.2990651506063402 0.04656992046979862 0  0.3658138865510369 0.1250908110711949 0  2.045405893604797 0.1105340662939892 0  1.255408269734577 0.1577307500159216 0  0.7848198562432198 0.04176011905165711 0  2.028125 0.03707597992059326 0  0.04420832937638274 0.128125 0  0.1197849154434487 0.2663398672460083 0  0.2773440361767429 0.1325614896367195 0  1.248258025468107 0.2565907092181813 0  0.1300647302703173 0.0508462728378621 0  1.203125 0.03661323374043041 0  0.221416587416242 0.04909393590284095 0  2.072662025974815 0.2975086504196739 0  0.7309361959118756 0.1724117473133809 0  1.049057507569546 0.1150968098952652 0  1.029426696124534 0.0611707995214115 0  0.7592092911094858 0.2823604815974596 0  1.113520643506534 0.1031115419092917 0  1.887722846421017 0.1760882698830035 0  0.7976278545651526 0.3713969152554929 0  0.8476376957455005 0.2968044376629371 0  1.472640588990488 0.1118278026240017 0  1.865937103925594 0.2604137786483804 0  1.463913572748262 0.2030442564990043 0  0.2154602920799496 0.2951006307678045 0  1.376426316059077 0.3186741374914345 0  0.928125000000
[...]
<PointData  Vectors="f_37"> 
<DataArray  type="Float64"  Name="f_37"  NumberOfComponents="3" format="ascii">-2.5732726964437246e-06 -1.6759684204018429e-06 0.0000000000000000e+00  -2.3369330268031124e-06 1.9444672869562429e-06 0.0000000000000000e+00  -1.2903917350422311e-06 -4.9833927209313901e-07 0.0000000000000000e+00  -1.6610673964692198e-06 -2.4995111638467843e-07 0.0000000000000000e+00  7.7099955953177039e-05 -1.5114340978203788e-05 0.0000000000000000e+00  6.8741423461064077e-05 7.1427915745242022e-06 0.0000000000000000e+00  7.9598885753809443e-05 9.6497704817643730e-06 0.0000000000000000e+00  6.7180905241741963e-05 -2.3809832254083773e-05 0.0000000000000000e+00  1.6069955741902579e-05 -4.6985825632603170e-05 0.0000000000000000e+00  -2.0495367005261254e-05 1.4594316036416280e-05 0.0000000000000000e+00  -2.2419868597275435e-07 1.5203377572511617e-05 0.0000000000000000e+00  2.2384718464837097e-05 -3.1866365635824782e-07 0.0000000000000000e+00  5.4523479998252367e-06 -2.5884582547595190e-06 0.0000000000000000e+00  5.1270021222954914e-05 2.7624781486014679e-05 0.0000000000000000e+00  6.0811010781718655e-05 -3.1550941940627156e-05 0.0000000000000000e+00  -1.4174659477725904e-01 7.4351545438337274e-03 0.0000000000000000e+00  4.9166490288863778e-05 1.8774414566306299e-05 0.0000000000000000e+00  1.3979817272652805e-05 6.8678337935992282e-06 0.0000000000000000e+00  -1.6303741515631981e-05 -8.7696807184011131e-06 0.0000000000000000e+00  -6.0793773899780149e-05 1.4527567120354274e-05 0.0000000000000000e+00  2.3645534221933433e+00 1.0790779861155935e+00 0.0000000000000000e+00  1.1281390768272436e-04 5.7638387206486268e-05 0.0000000000000000e+00  4.2839568187727554e-05 -3.6989958529602175e-05 0.0000000000000000e+00  -1.1000093169407983e-05 1.1534939858379176e-05 0.0000000000000000e+00  -1.1452754948477517e-05 2.3241102972991855e-05 0.0000000000000000e+00  2.7300331803020372e-01 -1.4208142927263240e-01 0.0000000000000000e+00  -2.0099126733054713e-05 -3.9036047093156032e-05 0.0000000000000000e+00  -2.9120323895368065e-05 7.2948792436442056e-07 0.0000000000000000e+00  -1.3299049444579957e-06 2.0225125788521431e-05 0.0000000000000000e+00  3.2723816445529136e-06 1.8768800339705927e-05 0.0000000000000000e+00  1.3623029727462674e+00 -5.6043011380142471e-01 0.0000000000000000e+00  9.5537272659179540e-07 2.7061057869332977e-05 0.0000000000000000e+00  2.8112508621544839e-05 2.3211290791744496e-05 0.0000000000000000e+00  4.6959822364394832e-05 -5.9422298793676604e-05 0.0000000000000000e+00  -2.4773801887505956e-06 -3.5906754517356534e-08 0.0000000000000000e+00  1.5000022723840054e+00 2.9347049461004945e-06 0.0000000000000000e+00  -7.8791704583429739e-07 -2.3789335948139604e-07 0.0000000000000000e+00  4.8963319316555645e-06 1.5390516322077250e-06 0.0000000000000000e+00  1.0965963281362875e-05 1.1798738922894884e-07 0.0000000000000000e+00  2.0807334057406627e-05 3.2745072052839144e-06 0.0000000000000000e+00  6.1907410120517427e-06 -1.8851655464605673e-06 0.0000000000000000e+00  -4.7688770434722506e-06 1.6304856930201877e-07 0.0000000000000000e+00  -1.0440766602612043e-05 1.4844623135070512e-07 0.0000000000000000e+00  -4.3384270418970816e-07 1.5852930062398027e-07 0.0000000000000000e+00  -1.4129939912725500e-06 1.2531933942823349e-07 0.0000000000000000e+00  2.5048456828087052e-07 -1.2273515660672062e-07 0.0000000000000000e+00  8.1094518939149403e-07 -1.9212299592745384e-08 0.0000000000000000e+00  -7.6667260904292409e-07 1.1225631463756637e-07 0.0000000000000000e+00  -2.5025132715409963e-06 1.0885341321385445e-07 0.0000000000000000e+00  -9.7430516786710621e-06 -1.1386680506828052e-07 0.0000000000000000e+00  -2.3719618203487873e-06 1.6890036760852813e-07 0.0000000000000000e+00  8.3995975749190388e-01 -9.3352716264547467e-05 0.0000000000000000e+00  8.3994014486356572e-01 -3.2606200175187359e-05 0.0000000000000000e+00  8.3756926025613099e-01 -8.2729394216129060e-03 0.0000000000000000e+00  8.4000835496444726e-01 -7.5405414043812347e-04 0.0000000000000000e+00  8.4054327497887982e-01 5.8140870963165530e-05 0.0000000000000000e+00  8.3999600244559236e-01 2.4074920409543737e-05 0.0000000000000000e+00  7.7089725060070602e-01 -6.4483294170228616e-03 0.0000000000000000e+00  -5.9982159840921080e-06 8.6460904625401302e-08 0.0000000000000000e+00  -1.6584037133292930e-05 -1.9828092860576282e-06 0.0000000000000000e+00  -4.3398807639836470e-06 4.7053147754903041e-08 0.0000000000000000e+00  8.4025303251945238e-01 -9.2946699260034187e-04 0.0000000000000000e+00  -2.6265071501811918e-05 1.5899614815017543e-06 0.0000000000000000e+00  -1.6488996302109927e-06 -4.1088742433681119e-09 0.0000000000000000e+00  8.3987493166268767e-01 -2.3723708552834713e-04 0.0000000000000000e+00  1.6470081524736672e-06 -1.5391360606435953e-07 0.0000000000000000e+00  -1.2877758762995082e-06 -3.0800746829204001e-07 0.0000000000000000e+00  -8.2617800220163223e-07 -2.3937346051181337e-07 0.0000000000000000e+00  -3.0344102816548306e-06 3.9047676112513016e-07 0.0000000000000000e+00  -5.0679015306924050e-06 -8.0053941040920288e-08 0.0000000000000000e+00  1.2759956775888505e-05 2.4291840004534912e-06 0.0000000000000000e+00  1.5143125071990996e-05 -3.4802944630871659e-06 0.0000000000000000e+00  -1.6940130961893460e-06 1.4947861660360459e-07 0.0000000000000000e+00  8.3863988302700565e-01 -2.1252926282589232e-03 0.0000000000000000e+00  -2.4625723650728664e-06 -1.6812784495718921e-07 0.0000000000000000e+00  8.3991147591056270e-01 -1.9066644322637772e-05 0.0000000000000000e+00  8.3998579000440865e-01 -8.3574820184737479e-05 0.0000000000000000e+00  8.4115237224899631e-01 -1.7912075538756957e-03 0.0000000000000000e+00  8.4013426153151494e-01 -1.3375289862004139e-04 0.0000000000000000e+00  8.9600846540268364e-01 -2.8744707449392809e-01 0.0000000000000000e+00  8.3997085106514469e-01 8.1618095676722621e-06 0.0000000000000000e+00  8.3995164633288810e-01 1.9526157347640334e-04 0.0000000000000000e+00  8.4004003038937003e-01 -2.2599122545373224e-05 0.0000000000000000e+00  8.5381972744765489e-01 -1.7316896825521108e-02 0.0000000000000000e+00  8.3111075973300852e-01 -1.1608147963186833e-03 0.0000000000000000e+00  1.1249966849985247e+00 4.2156795808725983e-06 0.0000000000000000e+00  1.1250023588449525e+00 -2.2880309093783240e-06 0.0000000000000000e+00  8.4003647676561710e-01 -1.1078784540616030e-05 0.0000000000000000e+00  8.3581796217086646e-01 -2.7398524726176617e-03 0.0000000000000000e+00  8.3989220102872075e-01 1.9208792979506472e-04 0.0000000000000000e+00  8.3986318482084321e-01 -6.3585607381688356e-05 0.0000000000000000e+00  8.3996094372272356e-01 -3.0809341707903058e-05 0.0000000000000000e+00  8.4403049581421674e-01 -2.8716322934336834e-03 0.0000000000000000e+00  1.3111083293745489e+00 -9.5973542259926922e-02 0.0000000000000000e+00  8.3986217594010060e-01 -5.2414072128110854e-05 0.0000000000000000e+00  8.3988029684139309e-01 -4.4325693320612544e-05 0.0000000000000000e+00  8.3962191585097157e-01 -2.3732223989520232e-04 0.0000000000000000e+00  8.4020118842265656e-01 9.4017273144221222e-04 0.0000000000000000e+00  8.4073710657820955e-01 -6.6888968306940289e-04 0.0000000000000000e+00  8.3991673846728443e-01 -1.1380724570960254e-04 0.0000000000000000e+00  8.3950061756528005e-01 7.7710424824216170e-05 0.0000000000000000e+00  8.3852878035702083e-01 -5.5035755110216240e-04 0.0000000000000000e+00  1.4394089212107981e+00 -7.7308385243177943e-02 0.0000000000000000e+00  8.7708012471706320e-01 2.7491441873868966e-01 0.0000000000000000e+00  8.4259448959979644e-01 -6.6563321129708100e-02 0.0000000000000000e+00  8.3994166129301717e-01 3.1185506497385354e-05 0.0000000000000000e+00  8.2571978080826713e-01 -1.4812961595609419e-02 0.0000000000000000e+00  8.3534977929677889e-01 2.0258811534969421e-02 0.0000000000000000e+00  1.4666934613212910e+00 -3.3151491814961320e-01 0.0000000000000000e+00  1.2024952703066349e+00 2.3642849188218176e-01 0.0000000000000000e+00  8.3998667123993109e-01 4.2621862512694415e-05 0.0000000000000000e+00  8.4020818780687512e-01 -4.0128794844065856e-03 0.0000000000000000e+00  1.2492035773482850e+00 3.6086663652525425e-01 0.0000000000000000e+00  8.3994817393403065e-01 -1.2487909326198019e-04 0.0000000000000000e+00  -1.2416913086713512e-06 1.8366287369067202e-06 0.0000000000000000e+00  4.1660004151080865e-01 -6.9789587398528891e-02 0.0000000000000000e+00  1.1699554776010905e+00 -2.4469372024158098e-01 0.0000000000000000e+00  -3.4356376906367315e-06 2.8735008437449256e-07 0.0000000000000000e+00  8.3868233109437695e-01 1.2149506851660244e-04 0.0000000000000000e+00  -4.5266966064598753e-06 -2.6234251601245565e-07 0.0000000000000000e+00  -3.1314232372514844e-05 6.8978264688065686e-06 0.0000000000000000e+00  8.3992422462050464e-01 -6.1029930885812269e-05 0.0000000000000000e+00  -9.6224598615603900e-06 6.1389078609729920e-07 0.0000000000000000e+00  8.3951875121226582e-01 -1.1867740743487458e-04 0.0000000000000000e+00  -5.7847679334075284e-06 2.2064980916405078e-09 0.0000000000000000e+00  5.6340774806519811e-01 3.6467024247749524e-01 0.0000000000000000e+00  1.5919313279140963e+00 -7.1322303836062043e-02 0.0000000000000000e+00  -3.0689635816952181e-06 -3.4334679359037192e-08 0.0000000000000000e+00  8.4009473983630989e-01 4.0149885414401260e-04 0.0000000000000000e+00  1.2517130388663984e+00 -4.7264369556564068e-01 0.0000000000000000e+00  1.3418467463086896e+00 -1.2580829129987614e-01 0.0000000000000000e+00  1.3736228950081413e+00 1.1852020556738764e-01 0.0000000000000000e+00  8.3986571596618576e-01 -1.0015142547722739e-04 0.0000000000000000e+00  8.3916759810247510e-01 -5.2361036665069980e-04 0.0000000000000000e+00  7.4719306391455773e-07 3.4750364201208468e-08 0.0000000000000000e+00  8.3687248063276631e-01 -1.3979452928519435e-03 0.0000000000000000e+00  8.3992375732655700e-01 -3.8465925713318357e-05 0.0000000000000000e+00  8.3988932038803032e-01 -1.5888360821874046e-03 0.0000000000000000e+00  8.3991362809495484e-01 -3.8368443895394711e-04 0.0000000000000000e+00  8.3942581283871331e-01 -7.2707532986807948e-05 0.0000000000000000e+00  9.3846704214118992e-01 -6.9688186288967238e-02 0.0000000000000000e+00  4.7497647851908070e-01 -4.0974603591004372e-01 0.0000000000000000e+00  8.3932944977400104e-01 -7.2297735967795276e-04 0.0000000000000000e+00  -9.2157758125857697e-06 -3.0224501201659217e-07 0.0000000000000000e+00  1.6431651543641371e-06 -3.1276939557268325e-07 0.0000000000000000e+00  8.4253904569236693e-01 -6.6174549688620601e-03 0.0000000000000000e+00  -4.1084106057344942e-06 1.8310884357368791e-06 0.0000000000000000e+00  2.2159639002290320e-05 1.5912293418957411e-05 0.0000000000000000e+00  6.5624948655635185e-01 2.7789182263541339e-06 0.0000000000000000e+00  8.4907140267154058e-01 -5.1904366594519406e-03 0.0000000000000000e+00  -5.5334249608173658e-06 -7.1742386998038524e-07 0.0000000000000000e+00  1.3989026298124467e+00 2.1236762222232911e-01 0.0000000000000000e+00  -3.3059782484616152e-06 1.8151635489134260e-07 0.0000000000000000e+00  8.3877060901340206e-01 5.3113150838164344e-05 0.0000000000000000e+00  8.3994665574595739e-01 -2.0051962929758525e-05 0.0000000000000000e+00  -2.3138256781299780e-06 4.4336974179354542e-08 0.0000000000000000e+00  -6.5813377931789147e-06 1.1525344631129706e-07 0.0000000000000000e+00  -2.7215641908049111e-07 -2.6881334735639265e-08 0.0000000000000000e+00  -3.8937456213322875e-06 -8.2079224383395999e-08 0.0000000000000000e+00  -3.5383854221098565e-06 1.6903267233962496e-07 0.0000000000000000e+00  -3.6710470049238308e-06 -1.0085910099600339e-07 0.0000000000000000e+00  -4.0048434483605771e-06 -2.2776074881594738e-07 0.0000000000000000e+00  -2.6830109317509111e-05 -3.7324352867102455e-06 0.0000000000000000e+00  1.0041675854549186e-05 -5.2813683399922991e-07 0.0000000000000000e+00  2.9259734939347728e-06 8.0750910225203974e-06 0.0000000000000000e+00  2.3149166238771187e-05 -1.7417559777771438e-05 0.0000000000000000e+00  2.6704706093791970e-05 -3.2630235189191984e-06 0.0000000000000000e+00  4.4774412469690349e-07 -1.0473613872769791e-07 0.0000000000000000e+00  -4.1331029640251345e-06 4.0024872880579265e-08 0.0000000000000000e+00  -4.2910466492085609e-06 1.7754343507057731e-07 0.0000000000000000e+00  -3.2229639024489563e-06 -4.3224427023882654e-08 0.0000000000000000e+00  -2.1107782717809905e-06 1.0211877740139264e-07 0.0000000000000000e+00  -5.7126634545001892e-06 -1.0494601721229857e-07 0.0000000000000000e+00  8.3681186434639254e-01 5.2739404499772553e-04 0.0000000000000000e+00  8.4104257074133737e-01 -6.0509266721396496e-04 0.0000000000000000e+00  8.3962552107123301e-01 -2.1387055078890522e-04 0.0000000000000000e+00  8.3786447640327355e-01 -3.7834163919482212e-03 0.0000000000000000e+00  8.3894605953135648e-01 2.7929726855229950e-04 0.0000000000000000e+00  8.3994994365072251e-01 -5.8580273436816529e-05 0.0000000000000000e+00  8.4017758427609512e-01 -4.2138950398844580e-04 0.0000000000000000e+00  1.3888747174288507e+00 2.7446061377395353e-01 0.0000000000000000e+00  8.3739508603894441e-01 4.5618039885204101e-04 0.0000000000000000e+00  8.4016614225346031e-01 1.1832913432887510e-04 0.0000000000000000e+00  8.3999749486576336e-01 5.3158753181002052e-05 0.0000000000000000e+00  8.3995423385635537e-01 8.3538833704847046e-05 0.0000000000000000e+00  8.3994705378452583e-01 4.2243281266148239e-05 0.0000000000000000e+00  8.3808568874555289e-01 -5.5660197416812767e-04 0.0000000000000000e+00  8.3891055324171682e-01 -3.9293219013928336e-04 0.0000000000000000e+00  8.3954241649721373e-01 -2.3559392965237847e-04 0.0000000000000000e+00  8.8142056795923718e-01 -2.3052845199493584e-02 0.0000000000000000e+00  8.9574400059928927e-01 5.3547851041558452e-02 0.0000000000000000e+00  8.3968516387424352e-01 -1.2847154111638592e-04 0.0000000000000000e+00  7.5574615079618868e-01 -1.1577367367284078e-01 0.0000000000000000e+00  1.1114884217234180e+00 -1.1567704616837549e-01 0.0000000000000000e+00  6.0695480548476632e-01 -6.7711813440876345e-01 0.0000000000000000e+00  8.3998362517363678e-01 -2.9276213713261811e-05 0.0000000000000000e+00  8.4003631566138881e-01 -2.5038359558139119e-04 0.0000000000000000e+00  8.4007828715678556e-01 3.6767825863509790e-05 0.0000000000000000e+00  8.3904060828880489e-01 -9.0040179853040527e-05 0.0000000000000000e+00  8.3990696465096759e-01 -7.6454795714366261e-05 0.0000000000000000e+00  1.4278720909204223e+00 3.8697906491785984e-02 0.0000000000000000e+00  8.1594035327094838e-01 1.5932918687284066e-03 0.0000000000000000e+00  8.3095930405962037e-01 -1.5455297524874353e-03 0.0000000000000000e+00  8.4248022611505335e-01 -1.2957087147083416e-02 0.0000000000000000e+00  8.4042078961866817e-01 -1.0632348556481380e-03 0.0000000000000000e+00  8.3833897387057477e-01 -6.0530311688745463e-05 0.0000000000000000e+00  8.3990555065964201e-01 -1.3697058149992614e-05 0.0000000000000000e+00  8.3900275357816745e-01 7.0334281215336683e-04 0.0000000000000000e+00  8.3391638310252036e-01 -5.0365469651247928e-03 0.0000000000000000e+00  8.3133430882781245e-01 1.3255391349707337e-03 0.0000000000000000e+00  6.5624725337838563e-01 -1.6017346587915423e-06 0.0000000000000000e+00  1.6805807690548629e+00 -2.7297749698135554e-01 0.0000000000000000e+00  1.8193063695983349e+00 -1.3884715363037567e-01 0.0000000000000000e+00  7.9860608372488928e-01 7.9556788915707694e-02 0.0000000000000000e+00  1.7090505362898143e+00 -1.2036007240502798e-01 0.0000000000000000e+00  8.3856971135905267e-01 -2.8278723531939391e-02 0.0000000000000000e+00  8.3851835454006118e-01 5.8398886838535109e-05 0.0000000000000000e+00  1.6941209567113811e+00 1.4591609987358026e-01 0.0000000000000000e+00  8.4047752671294107e-01 -3.5274206432087617e-04 0.0000000000000000e+00  8.3994041230596717e-01 -9.2317531209256152e-05 0.0000000000000000e+00  8.3999095191156048e-01 -4.9320206254624052e-05 0.0000000000000000e+00  8.3991465473378557e-01 3.5465936292288968e-06 0.0000000000000000e+00  8.3998546290756948e-01 -3.1018997983607626e-04 0.0000000000000000e+00  8.4059199695715503e-01 4.3666911229569492e-04 0.0000000000000000e+00  1.6735733463473907e+00 -2.1261612514199385e-01 0.0000000000000000e+00  8.3872068870287786e-01 6.7310354451590685e-04 0.0000000000000000e+00  1.0483774849361742e+00 8.4931888932832919e-02 0.0000000000000000e+00  8.3868890187765210e-01 4.9576614381131190e-01 0.0000000000000000e+00  1.8005331743032120e+00 2.6960279467179249e-01 0.0000000000000000e+00  1.5946347101917409e+00 2.2162610740248082e-01 0.0000000000000000e+00  9.4564009120502335e-01 7.9449811219997266e-02 0.0000000000000000e+00  9.4745228034244022e-01 1.0170453693496743e-01 0.0000000000000000e+00  8.3987532302839185e-01 -5.5455318433530443e-05 0.0000000000000000e+00  1.2256016410468380e+00 1.4933511797663426e-01 0.0000000000000000e+00  8.3916202856219946e-01 -1.6061574823932780e-04 0.0000000000000000e+00  8.3898311348545507e-01 -1.7808425731697622e-04 0.0000000000000000e+00  8.3885881144311292e-01 -1.2093460536585980e-03 0.0000000000000000e+00  8.4007629098362857e-01 4.2380613767297311e-04 0.0000000000000000e+00  8.3995321417379654e-01 -7.0873729736085493e-05 0.0000000000000000e+00  8.3993501781891300e-01 -6.8041062739317655e-05 0.0000000000000000e+00  8.3978619339955496e-01 -2.7390314241609447e-04 0.0000000000000000e+00  8.3045842125473435e-01 -2.8817718756705458e-04 0.0000000000000000e+00  8.3165399302414222e-01 -1.6521396398703518e-04 0.0000000000000000e+00  8.2858774697961735e-01 -1.8403119012156551e-03 0.0000000000000000e+00  8.3992278866279035e-01 6.0089201097508708e-05 0.0000000000000000e+00  8.3114909184335040e-01 -4.1004739828363738e-04 0.0000000000000000e+00  8.3995722750129231e-01 -3.1576387961622996e-05 0.0000000000000000e+00  8.4002948223091090e-01 5.0190472117045794e-05 0.0000000000000000e+00  8.4027563136232319e-01 -2.4700066954577529e-03 0.0000000000000000e+00  8.3996652475330036e-01 7.7601128691169528e-06 0.0000000000000000e+00  8.3993699596379012e-01 7.3368578784270773e-06 0.0000000000000000e+00  8.2843061632795623e-01 -8.5870888496219729e-04 0.0000000000000000e+00  8.4248209291921294e-01 -1.9913157650671867e-03 0.0000000000000000e+00  8.3698826490731804e-01 -1.5902224907598443e-04 0.0000000000000000e+00  7.5151721540819982e-01 -5.0767133244025403e-02 0.0000000000000000e+00  8.2980703971916225e-01 9.6281724243028541e-04 0.0000000000000000e+00  1.5355633067900636e+00 4.8448477447014182e-01 0.0000000000000000e+00  8.8032158542134276e-01 3.0483058871442620e-01 0.0000000000000000e+00  8.3524175618121532e-01 -1.6683762693866125e-03 0.0000000000000000e+00  2.0026493605602300e+00 2.1456274001320935e-03 0.0000000000000000e+00  1.4868460478961651e+00 -5.8569611799999510e-01 0.0000000000000000e+00  1.3909840287379860e+00 1.0012633060977470e-02 0.0000000000000000e+00  8.3331669603357728e-01 5.1305395600027804e-04 0.0000000000000000e+00  8.4215532251354697e-01 -3.8609018770466856e-03 0.0000000000000000e+00  8.3856216917417270e-01 -1.0632588878846086e-03 0.0000000000000000e+00  8.4095227453177968e-01 -9.9107926130575065e-04 0.0000000000000000e+00  8.1172388356536573e-01 -3.4631583676574179e-02 0.0000000000000000e+00  1.4062546117367809e+00 3.7649763110626911e-06 0.0000000000000000e+00  8.4051894430117202e-01 -3.7343459109609185e-04 0.0000000000000000e+00  8.3491429405198636e-01 -2.2187911249108597e-04 0.0000000000000000e+00  1.4062502590467623e+00 5.4620492383818105e-07 0.0000000000000000e+00  8.3777854119527706e-01 -3.2555553871732644e-04 0.0000000000000000e+00  8.5412141640140082e-01 -5.5472086541469559e-03 0.0000000000000000e+00  8.3114304314114007e-01 -1.2884493766689813e-03 0.0000000000000000e+00  8.3997523337780544e-01 -1.0956562950326971e-04 0.0000000000000000e+00  7.0705161256100690e-01 7.2962986639355340e-02 0.0000000000000000e+00  8.4020177314052813e-01 -1.0498770510143404e-04 0.0000000000000000e+00  8.3471686624083308e-01 -4.6069206817363673e-04 0.0000000000000000e+00  8.1538639493766696e-01 -1.4340352756864233e-03 0.0000000000000000e+00  8.3974739989363933e-01 -2.2583791634896505e-04 0.0000000000000000e+00  8.1341217843092251e-01 -2.1618398801750470e-04 0.0000000000000000e+