<?xml version="1.0"?>
<VTKFile type="UnstructuredGrid"  version="0.1"  >
<UnstructuredGrid>
<Piece  NumberOfPoints="2362" NumberOfCells="4391">
<Points>
<DataArray  type="Float64"  NumberOfComponents="3"  format="ascii">0 0.41 0  0 0 0  2.2 0 0  2.2 0.41 0  0.2404508497187474 0.2293892626146237 0  0.25 0.2 0  0.2404508497187474 0.1706107373853764 0  0.2154508497187474 0.1524471741852423 0  0.1845491502812526 0.1524471741852423 0  0.1595491502812526 0.1706107373853764 0  0.15 0.2 0  0.1595491502812526 0.2293892626146237 0  0.1845491502812527 0.2475528258147577 0  0.2154508497187474 0.2475528258147577 0  0.5951056516295153 0.2309016994374948 0  0.6 0.2 0  0.5951056516295153 0.1690983005625052 0  0.5809016994374947 0.1412214747707527 0  0.5587785252292473 0.1190983005625053 0  0.5309016994374948 0.1048943483704846 0  0.5 0.1 0  0.4690983005625052 0.1048943483704847 0  0.4412214747707527 0.1190983005625053 0  0.4190983005625052 0.1412214747707527 0  0.4048943483704846 0.1690983005625053 0  0.4 0.2 0  0.4048943483704847 0.2309016994374948 0  0.4190983005625052 0.2587785252292473 0  0.4412214747707527 0.2809016994374948 0  0.4690983005625053 0.2951056516295154 0  0.5 0.3 0  0.5309016994374948 0.2951056516295154 0  0.5587785252292473 0.2809016994374948 0  0.5809016994374947 0.2587785252292473 0  1.1 0 0  0 0.205 0  1.1 0.41 0  0.55 0 0  0.55 0.41 0  0.275 0 0  0.275 0.41 0  0.4125 0 0  0.4125 0.41 0  1.65 0.41 0  1.65 0 0  1.375 0 0  1.375 0.41 0  1.925 0 0  1.925 0.41 0  0.8250000000000001 0 0  0.8250000000000001 0.41 0  1.5125 0.205 0  1.7875 0.205 0  0.9625000000000001 0.205 0  1.2375 0.205 0  2.2 0.205 0  1.99375 0.2152743902439024 0  0.7815916808149406 0.1777281409168082 0  2.0625 0 0  0.6875 0.41 0  2.0625 0.41 0  2.2 0.3075 0  0.6875 0 0  1.7875 0.41 0  1.375 0.1486128048780488 0  1.5125 0 0  1.7875 0 0  1.5125 0.41 0  0.9625000000000001 0 0  0.9625000000000001 0.41 0  0.1375 0 0  0.1375 0.41 0  1.2375 0 0  1.1 0.1486128048780488 0  1.2375 0.41 0  1.65 0.1486128048780487 0  1.676715909090909 0.2793064024390244 0  1.126715909090909 0.2793064024390244 0  1.348284090909091 0.2793064024390244 0  0.7111837382351637 0.2844002487563727 0  1.894702181800738 0.1282910975492754 0  2.092797818199262 0.1282910975492754 0  1.85625 0.3075 0  0.89375 0.3075 0  0.89375 0.1025 0  0 0.3075 0  0 0.1025 0  2.099172119769978 0.25625 0  1.002356446954348 0.1010393851523063 0  1.99375 0.08395950269330846 0  1.459960956013612 0.3075 0  1.569025960719943 0.2986889805672169 0  1.03125 0.3278689922742084 0  0.3192727088781826 0.3079212096616675 0  1.959375 0.3126371951219512 0  1.749222215368287 0.1025 0  1.275777784631713 0.1025 0  2.2 0.1025 0  1.225938124459196 0.3075 0  1.550777784631713 0.1025 0  1.44375 0.07430640243902442 0  1.16875 0.07430640243902439 0  0.3437500000000001 0.07397709473011121 0  0.6911993143367559 0.1118123074367635 0  0.8057215702682121 0.2702269632945269 0  1.899250267340833 0.2229966846119207 0  0.8720458404074704 0.1913640704584042 0  0.8032958404074703 0.0888640704584041 0  0.6337831477789919 0.3348380330536306 0  0.1020898364287272 0.3140258291809757 0  1.766482954545455 0.2934032012195123 0  1.051658316544432 0.2265720188842194 0  0.2 0.3400647632937836 0  1.421109702350723 0.2261157654379721 0  0.61875 0 0  0.6878950265164463 0.199645915719726 0  0.098916018031319 0.09171660955420841 0  2.13125 0 0  2.118919042110979 0.3422084711244843 0  1.30625 0.41 0  0.20625 0 0  1.597888256393107 0.2173787389261347 0  0.7562500000000001 0.41 0  1.829299675393195 0.07400700849299596 0  1.71875 0.41 0  0.3225835293916391 0.1601701968669111 0  0.2606666398188512 0.0822552582932282 0  1.16875 0.41 0  2.038220665644273 0.332420740103091 0  0.176193934632343 0.0734896648625108 0  0.07390688010811153 0.1697064032433452 0  0.05452951551825875 0.25625 0  1.452769549894695 0.1548122580621249 0  1.369219062229598 0.07430640243902442 0  1.30625 0 0  1.075792183788687 0.07430640243902439 0  1.720943423819132 0.1714577452753128 0  1.157188124459196 0.205 0  1.304056576180868 0.1714577452753128 0  1.67579304192913 0.07430640243902437 0  0.7671326277666176 0.3352102652308781 0  0.3304630541488595 0.2342593631089261 0  1.209670467133757 0.136210026696477 0  0.7562500000000001 0 0  1.58125 0 0  0.9945036230615469 0.267761374151655 0  0.4812500000000001 0.41 0  0.06875000000000001 0.41 0  0 0.35875 0  0.9595378427479357 0.3376804103519943 0  0.34375 0.41 0  0.3897250743675729 0.3371889980614159 0  1.58125 0.41 0  1.631724228912893 0.3381867502687533 0  1.825608881788174 0.14499488549201 0  1.85625 0 0  1.44375 0 0  1.44375 0.41 0  1.85625 0.41 0  2.13125 0.41 0  0.89375 0 0  0.89375 0.41 0  0.20625 0.41 0  0.34375 0 0  0.4812500000000001 0 0  0.06875000000000001 0 0  0.61875 0.41 0  1.16875 0 0  1.03125 0.41 0  1.03125 0 0  1.71875 0 0  1.99375 0 0  1.99375 0.41 0  1.340625 0.3489494290853124 0  1.134375 0.3489494290853123 0  1.700180620188976 0.3438659752031281 0  1.033412357328477 0.1612902025713048 0  2.135782184673599 0.07126652247502523 0  1.668441847249787 0.2129203728327609 0  1.295782514339747 0.2378437748815763 0  0.6228574598132852 0.07671664390624158 0  1.409375 0.3520314716057996 0  2.129248544730567 0.1906135162504124 0  2.060771381434487 0.1989445750470348 0  2.013252586573865 0.1496169464686054 0  1.942766402200229 0.1734448904596831 0  1.895522487186454 0.06076163953489683 0  2.069553871656643 0.06605731020975725 0  1.274680914880868 0.3520219391081363 0  0.835055311278239 0.3424380136622334 0  0.7401021045332367 0.06543430142341211 0  1.614713220494657 0.09473434380863296 0  0.7520823699979313 0.2348229030472582 0  0.7043417970120415 0.3481429366232311 0  0.6546643048326494 0.2543538116156937 0  1.72990325744076 0.2380068107952482 0  1.356580098625191 0.2120393231351682 0  2.034370752044885 0.2668681600792073 0  1.51768709249349 0.3426260931494756 0  1.561883724969884 0.1650446847858835 0  0.2653439943239876 0.345171903972789 0  0.8330496081674507 0.1432136774486613 0  0.9281250000000001 0.05125000000000001 0  0.9330537010450736 0.2595558360668175 0  1.197344062229598 0.2523725417393646 0  1.804085235518364 0.3468178408964637 0  1.817887819205233 0.2589243285818559 0  1.905897727272727 0.3485060975609756 0  0.9485678863664097 0.1400383079249692 0  0.859375 0.05125 0  0 0.05125 0  0.4074403514301243 0.06423252630440013 0  0.5245798370136819 0.3551909831755992 0  0.7505241288352321 0.1253952068674773 0  0.2619923711861096 0.2853251789076993 0  0.8650169191207625 0.2527737409589524 0  1.192836486056382 0.3562350748565544 0  0.446875 0.3592802242693868 0  1.28257088594801 0.2944411014911587 0  1.474860187679412 0.2504218616229368 0  1.406767003493824 0.2829282258560709 0  1.845656689180403 0.1998310418452388 0  2.144958525570388 0.2909790873294231 0  2.2 0.15375 0  0.5843750000000001 0.3640402812892887 0  1.57794966442982 0.3540357145964566 0  0.6847665055715617 0.05605778745887328 0  0.637863756942103 0.1315837975700875 0  0.515625 0.04531250000000001 0  0.5718106469538725 0.0522410511374206 0  0.0496154796471391 0.333125 0  0.3662446794185922 0.2773760459259736 0  1.508991196088596 0.1421783375065625 0  0.09776612425612034 0.2204896805326566 0  1.50436820029908 0.06143401634903343 0  1.223857000523521 0.08235548624535324 0  1.153316824384777 0.1289850171317838 0  2.148922302309752 0.1258841779285271 0  1.621993280276081 0.2841214267927899 0  1.550118654119087 0.2461998729100966 0  1.327182649291491 0.1216967252533594 0  1.753125 0.04556020050186112 0  1.271875 0.04556020050186116 0  0.9824282234771738 0.05051969257615315 0  1.94956388244759 0.1180512551534177 0  1.949997712993411 0.04965831614304109 0  1.771961817615021 0.1530278789497521 0  1.909246823951428 0.2812757146784527 0  1.106872424375684 0.2277674570637181 0  1.948575539857022 0.2445328248721197 0  1.697271520964565 0.1233917627620729 0  1.065625 0.3689344961371042 0  1.085849084308977 0.3170853572226867 0  1.577403511714593 0.05463601888079143 0  0.05622663515370135 0.05493816910862376 0  1.751571320346033 0.3651102912045228 0  0.1583785085108421 0.2994699345738728 0  0.1455283439499995 0.3542795598723423 0  2.2 0.35875 0  0.4605652621775715 0.05075477778725031 0  0.1455852234589313 0.1166494778469164 0  0.3170871189130322 0.3624193665482365 0  1.466879772203159 0.3611261772912453 0  1.045297740100467 0.2779948725912803 0  1.990280163552011 0.3564754268533217 0  1.17471064520912 0.2990917256188288 0  0.8219886595034398 0.2165866596606327 0  0 0.25625 0  2.2 0.25625 0  2.2 0.05125 0  0 0.15375 0  1.853978576207987 0.35875 0  0.884510791938353 0.35875 0  1.000341183849677 0.3689344961371042 0  1.515638456102889 0.2882700110184686 0  0.09048297387599738 0.3637717362208066 0  2.150453692751374 0.2387066338105111 0  1.323782677156475 0.04897634338873398 0  1.409375 0.03715320121951221 0  1.406484531114799 0.1087852750766809 0  1.134375 0.03715320121951219 0  1.627401732573545 0.04552157221025036 0  0.2990651506063402 0.04656992046979862 0  0.3658138865510369 0.1250908110711949 0  2.045405893604797 0.1105340662939892 0  1.255408269734577 0.1577307500159216 0  0.7848198562432198 0.04176011905165711 0  2.028125 0.03707597992059326 0  0.04420832937638274 0.128125 0  0.1197849154434487 0.2663398672460083 0  0.2773440361767429 0.1325614896367195 0  1.248258025468107 0.2565907092181813 0  0.1300647302703173 0.0508462728378621 0  1.203125 0.03661323374043041 0  0.221416587416242 0.04909393590284095 0  2.072662025974815 0.2975086504196739 0  0.7309361959118756 0.1724117473133809 0  1.049057507569546 0.1150968098952652 0  1.029426696124534 0.0611707995214115 0  0.7592092911094858 0.2823604815974596 0  1.113520643506534 0.1031115419092917 0  1.887722846421017 0.1760882698830035 0  0.7976278545651526 0.3713969152554929 0  0.8476376957455005 0.2968044376629371 0  1.472640588990488 0.1118278026240017 0  1.865937103925594 0.2604137786483804 0  1.463913572748262 0.2030442564990043 0  0.2154602920799496 0.2951006307678045 0  1.376426316059077 0.3186741374914345 0  0.928125000000
[...]
<PointData  Vectors="f_37"> 
<DataArray  type="Float64"  Name="f_37"  NumberOfComponents="3" format="ascii">-3.6873118167538584e-07 7.8233900878468079e-08 0.0000000000000000e+00  1.1806845090651868e-07 9.7065447162190169e-08 0.0000000000000000e+00  4.6264929348279108e-05 3.4190153880461775e-07 0.0000000000000000e+00  4.6358039638095268e-05 -7.8363564481393643e-07 0.0000000000000000e+00  -7.0026318048376752e-06 -1.3493706729864847e-05 0.0000000000000000e+00  -1.4912838859651373e-05 1.2106616340533720e-07 0.0000000000000000e+00  -2.2697885611478472e-05 1.6865493701879277e-05 0.0000000000000000e+00  1.4400909217332511e-05 2.8275854113339567e-06 0.0000000000000000e+00  5.7562679910495759e-06 -1.8079256004083501e-06 0.0000000000000000e+00  -1.1808474243305877e-05 6.8551612314929661e-06 0.0000000000000000e+00  3.8086068030974355e-07 9.9455891809986538e-06 0.0000000000000000e+00  3.1532098242469887e-06 4.0206742217413223e-06 0.0000000000000000e+00  -1.1467814827906458e-05 -1.3572256171622165e-07 0.0000000000000000e+00  -1.3464274066422262e-05 1.3469199256319085e-06 0.0000000000000000e+00  6.3643549900333189e-06 -5.9683528276188308e-05 0.0000000000000000e+00  -8.7261021978127282e-02 2.0026553796549159e-02 0.0000000000000000e+00  7.7137952561649947e-07 -2.3784426539482382e-05 0.0000000000000000e+00  -2.1282656937362552e-05 -1.1273280633937253e-05 0.0000000000000000e+00  -7.1738916534574537e-05 -2.7315331301299781e-05 0.0000000000000000e+00  2.7131669197888789e-04 1.4522441675203946e-04 0.0000000000000000e+00  2.7450481587812812e+00 1.1855707808564218e+00 0.0000000000000000e+00  -4.6048521747907306e-05 -7.4032601062162134e-04 0.0000000000000000e+00  -3.4556206355456856e-04 8.0474446341611880e-05 0.0000000000000000e+00  1.6817776301172624e-04 4.9065233503672573e-05 0.0000000000000000e+00  1.7511532139738456e-04 -5.5002169143303797e-06 0.0000000000000000e+00  -6.0326866766968823e-01 -4.7794200713764617e-01 0.0000000000000000e+00  -7.6498020606185749e-06 5.3779556102517176e-06 0.0000000000000000e+00  -2.1490028695408988e-04 -1.0319179874677909e-04 0.0000000000000000e+00  -1.7168527101092790e-05 3.4866152894212734e-05 0.0000000000000000e+00  1.5186287253645818e-04 2.6288199916742215e-05 0.0000000000000000e+00  1.4671019500799864e+00 -5.3747593115179548e-01 0.0000000000000000e+00  9.2193661162447100e-05 9.7430795303102157e-06 0.0000000000000000e+00  1.0641489400781580e-04 -2.3298308741922202e-05 0.0000000000000000e+00  3.0576459811640986e-05 -4.2536521119069528e-05 0.0000000000000000e+00  4.4333081607528668e-05 -1.1485586868913120e-06 0.0000000000000000e+00  1.5000025456757391e+00 3.8169139170201384e-06 0.0000000000000000e+00  4.5681335440223367e-05 -1.0657469990865238e-07 0.0000000000000000e+00  1.2798836358047884e-04 1.5413567744487849e-05 0.0000000000000000e+00  5.9074683535713352e-05 4.7274809531969757e-06 0.0000000000000000e+00  -1.3878479955571549e-05 3.8531421352475558e-07 0.0000000000000000e+00  1.7745148863486839e-05 1.4924791664258216e-06 0.0000000000000000e+00  3.8214672800921750e-05 -4.8828250234416513e-06 0.0000000000000000e+00  3.7567613380490945e-05 2.8366714827369817e-06 0.0000000000000000e+00  4.6655619335698232e-05 -8.0465082437494466e-07 0.0000000000000000e+00  4.5148816214029994e-05 -6.9698449337944866e-07 0.0000000000000000e+00  4.7366163589741492e-05 -3.0394090923139999e-08 0.0000000000000000e+00  4.6991549340219280e-05 -8.2562484363806917e-07 0.0000000000000000e+00  4.5764460666329719e-05 2.3955517424610211e-07 0.0000000000000000e+00  4.4500175586201778e-05 -1.1610701176848603e-06 0.0000000000000000e+00  1.5592376266117963e-05 1.5741865521189624e-06 0.0000000000000000e+00  2.4224712740336549e-05 -4.2336719188355978e-06 0.0000000000000000e+00  9.7410824153636477e-01 -1.2535505906563477e-04 0.0000000000000000e+00  9.7406095641217960e-01 -5.1821479774865172e-05 0.0000000000000000e+00  9.7521695697052146e-01 -2.5994540647102680e-02 0.0000000000000000e+00  9.7421981196293417e-01 -1.8738779107775423e-03 0.0000000000000000e+00  9.7406837085169562e-01 6.5895891865381222e-05 0.0000000000000000e+00  9.7405433980953970e-01 -6.2722772712188457e-06 0.0000000000000000e+00  6.2810351268619447e-01 6.2236837629404677e-02 0.0000000000000000e+00  3.9662787539066750e-05 1.9091905666929633e-07 0.0000000000000000e+00  5.5452980282692961e-05 1.4620099155118114e-06 0.0000000000000000e+00  4.3014671510228640e-05 -2.7749139375660604e-07 0.0000000000000000e+00  9.7388464432855160e-01 1.4847338567494168e-04 0.0000000000000000e+00  6.0604513982446554e-05 -9.1254157762002610e-07 0.0000000000000000e+00  4.6048560780143977e-05 -3.5097932002369093e-07 0.0000000000000000e+00  9.7388612935492658e-01 -3.9008654890370379e-04 0.0000000000000000e+00  4.7940828059146701e-05 -2.6106093197238129e-09 0.0000000000000000e+00  4.5547133217585485e-05 6.1103977628148507e-07 0.0000000000000000e+00  4.6477740558503276e-05 2.7054419919475265e-07 0.0000000000000000e+00  4.2065901725529563e-05 -1.5519792641608436e-06 0.0000000000000000e+00  3.8569974568203396e-05 -6.9141966594769178e-09 0.0000000000000000e+00  -5.7990035327032800e-06 1.5602658335825373e-06 0.0000000000000000e+00  -6.9920671492050503e-07 -8.7033263382286652e-07 0.0000000000000000e+00  4.4988050762891446e-05 -5.2888069229816468e-07 0.0000000000000000e+00  9.7123333009502288e-01 -6.4387308414572807e-03 0.0000000000000000e+00  4.3687525287832055e-05 4.0474008497678060e-07 0.0000000000000000e+00  9.7402689222699057e-01 -3.4343149950592998e-05 0.0000000000000000e+00  9.7405751214059744e-01 -3.7896164475000417e-05 0.0000000000000000e+00  9.7772208649281556e-01 -3.5904558691681430e-03 0.0000000000000000e+00  9.7449018022459044e-01 -4.6295638089056333e-04 0.0000000000000000e+00  1.6382451310471671e+00 -5.7674884924389347e-01 0.0000000000000000e+00  9.7411174992541261e-01 -6.8287212466504004e-05 0.0000000000000000e+00  9.7400495325765823e-01 6.2286117595082495e-05 0.0000000000000000e+00  9.7396457382287449e-01 1.1617059912652184e-04 0.0000000000000000e+00  1.0469797060141206e+00 -1.7229074797231469e-02 0.0000000000000000e+00  9.5612371971947252e-01 -2.1970427620833375e-02 0.0000000000000000e+00  1.1249982485269732e+00 1.5785491128484723e-06 0.0000000000000000e+00  1.1250037424229471e+00 1.9748409309408945e-06 0.0000000000000000e+00  9.7413752188365521e-01 1.7387155230209266e-05 0.0000000000000000e+00  9.6186455548652372e-01 -1.1781323481979241e-02 0.0000000000000000e+00  9.7331780036901761e-01 8.7708663354455697e-05 0.0000000000000000e+00  9.7420402983463295e-01 1.9587153417859668e-05 0.0000000000000000e+00  9.7391154335436791e-01 -1.8674858635854157e-05 0.0000000000000000e+00  9.8427188240016739e-01 -2.5273710516658509e-03 0.0000000000000000e+00  2.0623087772887301e+00 5.4979928245079551e-02 0.0000000000000000e+00  9.7400224542238623e-01 -2.2665458762207324e-05 0.0000000000000000e+00  9.7348802744072771e-01 -1.4454527709610230e-04 0.0000000000000000e+00  9.7272750573171485e-01 -7.8889197467574626e-04 0.0000000000000000e+00  9.7375609679547370e-01 3.1992163647639800e-05 0.0000000000000000e+00  9.7579921687309379e-01 -1.0956593238848982e-03 0.0000000000000000e+00  9.7375015042448121e-01 -5.0058263439980253e-05 0.0000000000000000e+00  9.7140151292682309e-01 -2.1153687519895274e-04 0.0000000000000000e+00  9.6781204461745451e-01 -1.6921146203802040e-03 0.0000000000000000e+00  2.1204708529991736e+00 -2.4661229188624512e-01 0.0000000000000000e+00  1.5559636721378487e+00 4.3013588793242546e-01 0.0000000000000000e+00  1.1330636137820920e+00 -2.7865768551018910e-01 0.0000000000000000e+00  9.7405519122687545e-01 -1.4733282787906502e-06 0.0000000000000000e+00  9.3748160271820447e-01 -5.4030188174023684e-02 0.0000000000000000e+00  1.0609953676665469e+00 -1.1550792137637713e-02 0.0000000000000000e+00  1.9073663534965493e+00 -2.6267885912114292e-01 0.0000000000000000e+00  1.1942331488657536e+00 2.7689367626418637e-01 0.0000000000000000e+00  9.7410503155540806e-01 -9.3274553957040682e-05 0.0000000000000000e+00  9.7756606279498448e-01 -1.0320959923087018e-02 0.0000000000000000e+00  1.4318061274272964e+00 2.5317717703827247e-01 0.0000000000000000e+00  9.7418758061844568e-01 -2.6374286834356776e-04 0.0000000000000000e+00  6.4282504636200074e-05 6.6653380970516232e-06 0.0000000000000000e+00  -5.0437112148573615e-01 1.5937356889838297e-01 0.0000000000000000e+00  1.1346595139261428e+00 -2.5612837947100514e-01 0.0000000000000000e+00  4.3525383266715837e-05 -1.0610974718147806e-07 0.0000000000000000e+00  9.6843018442769513e-01 -2.2004882894130419e-05 0.0000000000000000e+00  4.1722753635677774e-05 1.5075711378084917e-06 0.0000000000000000e+00  -1.0888447661551171e-05 1.1771634207225492e-06 0.0000000000000000e+00  9.7405761745171748e-01 -4.4788572287188245e-05 0.0000000000000000e+00  7.9405722164760273e-05 -2.7738732731519748e-06 0.0000000000000000e+00  9.7147382139658023e-01 -4.4497391125007332e-05 0.0000000000000000e+00  3.9727809897910653e-05 1.1840860331543979e-06 0.0000000000000000e+00  -4.2825140143992779e-01 -1.6245003782722200e-01 0.0000000000000000e+00  1.8350199813940011e+00 -3.3396788325031085e-01 0.0000000000000000e+00  4.1898508950961024e-05 -1.7877498597321056e-07 0.0000000000000000e+00  9.7228720377741551e-01 1.6627684974549329e-04 0.0000000000000000e+00  1.3608870095126389e+00 -3.4132530858905724e-01 0.0000000000000000e+00  1.3323751031066711e+00 -1.0258710424768239e-01 0.0000000000000000e+00  1.3743644260667101e+00 1.4244321310688532e-01 0.0000000000000000e+00  9.7401020873667943e-01 -2.0966966615332237e-04 0.0000000000000000e+00  9.7027080088956574e-01 -1.5285915004153744e-04 0.0000000000000000e+00  4.7659279499248296e-05 6.1622393340958937e-07 0.0000000000000000e+00  9.6287785707486406e-01 -4.5674653567835607e-03 0.0000000000000000e+00  9.7400788656289305e-01 -5.8080817035064150e-05 0.0000000000000000e+00  9.7443866742544549e-01 -4.0289513409513065e-03 0.0000000000000000e+00  9.7383560014336268e-01 -9.2159120546672678e-04 0.0000000000000000e+00  9.7096693921468635e-01 -3.0961242740933835e-04 0.0000000000000000e+00  1.4499298926570250e+00 -1.9358909409034067e-01 0.0000000000000000e+00  5.7357804592823455e-02 -6.5478475654769844e-02 0.0000000000000000e+00  9.7259107311762172e-01 -2.0949104522461405e-03 0.0000000000000000e+00  2.8213772055396186e-05 4.2909806845435138e-06 0.0000000000000000e+00  4.7908572030665866e-05 3.0829382768694671e-07 0.0000000000000000e+00  9.8739964102041122e-01 -1.4142296721196941e-02 0.0000000000000000e+00  1.0959965278191947e-05 3.1662874970715823e-06 0.0000000000000000e+00  -3.5872646257640350e-08 -1.3054454071951712e-07 0.0000000000000000e+00  6.5625194263983366e-01 6.9404270346769183e-07 0.0000000000000000e+00  9.9481435641726024e-01 1.1278060982065608e-03 0.0000000000000000e+00  2.6942442254279992e-05 2.2090485509852498e-06 0.0000000000000000e+00  1.7498043686555291e+00 1.0520025713312928e-01 0.0000000000000000e+00  4.2627152982387118e-05 1.7514175495306549e-07 0.0000000000000000e+00  9.7046288057880781e-01 9.8372453260616698e-06 0.0000000000000000e+00  9.7408719881254047e-01 -2.0983320365580634e-05 0.0000000000000000e+00  4.4525948285059280e-05 -2.9842213869548215e-07 0.0000000000000000e+00  4.0529926917284299e-05 -1.0537182518464097e-07 0.0000000000000000e+00  4.6046516378692924e-05 3.3405352448301405e-07 0.0000000000000000e+00  4.2126892603654899e-05 1.0720695767423831e-06 0.0000000000000000e+00  4.4037797553789164e-05 2.2976878763338451e-08 0.0000000000000000e+00  3.7386041496292362e-05 1.1364318760957523e-08 0.0000000000000000e+00  3.2667775110769315e-05 5.7907568015906407e-07 0.0000000000000000e+00  7.3738708771691872e-06 3.8112819476190406e-08 0.0000000000000000e+00  6.2417879412856147e-06 -1.1981178715267619e-06 0.0000000000000000e+00  8.6881939456210630e-05 -4.0818820238646116e-05 0.0000000000000000e+00  -2.6825702747370905e-06 4.9021702873177646e-07 0.0000000000000000e+00  6.4103565234891803e-05 -8.1736578223370101e-07 0.0000000000000000e+00  4.6380837886949222e-05 6.3207515109617087e-07 0.0000000000000000e+00  4.1372046083900872e-05 -3.6394816026048971e-07 0.0000000000000000e+00  4.3159549977040158e-05 5.9785693015444117e-07 0.0000000000000000e+00  4.3644168945084970e-05 -8.6084661296076202e-07 0.0000000000000000e+00  4.5727080408483343e-05 1.7470367206719343e-07 0.0000000000000000e+00  3.9409585031544851e-05 1.4144418908667003e-06 0.0000000000000000e+00  9.6054031252196193e-01 1.1858149751968896e-04 0.0000000000000000e+00  9.6583303270500387e-01 -6.3706683403269863e-04 0.0000000000000000e+00  9.6672498438570731e-01 1.5630920649782146e-04 0.0000000000000000e+00  9.7040443614744043e-01 -1.2342918092300492e-02 0.0000000000000000e+00  9.6987200015403208e-01 -1.3384965833905536e-05 0.0000000000000000e+00  9.7407122974560978e-01 -5.6001233752331877e-05 0.0000000000000000e+00  9.7450461579262848e-01 -1.0065838283884018e-03 0.0000000000000000e+00  1.8560731142726596e+00 3.5517544993713202e-01 0.0000000000000000e+00  9.5739505628213861e-01 3.1375088750883797e-04 0.0000000000000000e+00  9.7406639838420928e-01 3.7533923012164795e-05 0.0000000000000000e+00  9.7402907476598921e-01 1.5517361893092144e-05 0.0000000000000000e+00  9.7402412946714556e-01 1.6667971598726006e-05 0.0000000000000000e+00  9.7405946422004197e-01 -1.8235978977337788e-05 0.0000000000000000e+00  9.6065134277058828e-01 -2.2224991069507734e-04 0.0000000000000000e+00  9.6659133046057910e-01 -9.6693507421694619e-05 0.0000000000000000e+00  9.5875240335182865e-01 -1.3460233678857643e-04 0.0000000000000000e+00  1.1021819778263982e+00 4.6331278419855494e-02 0.0000000000000000e+00  1.1968083262023359e+00 3.7837031963900661e-02 0.0000000000000000e+00  9.7372560472537484e-01 -3.5847034737616616e-05 0.0000000000000000e+00  6.2044473193815186e-01 -5.1548331865235208e-01 0.0000000000000000e+00  1.6661677068697760e+00 -2.9867570605393950e-01 0.0000000000000000e+00  4.2156397472405593e-01 1.7763631693005888e-01 0.0000000000000000e+00  9.7408107465395011e-01 -5.4632269497916497e-05 0.0000000000000000e+00  9.7421761468763157e-01 -5.7123018477542818e-04 0.0000000000000000e+00  9.7415038944935184e-01 5.4211773348503417e-07 0.0000000000000000e+00  9.6777388055411617e-01 4.0032334776855452e-04 0.0000000000000000e+00  9.7399979288814409e-01 -6.8025904894394875e-05 0.0000000000000000e+00  1.6299673639550345e+00 1.4134139794692338e-01 0.0000000000000000e+00  9.3149440696179864e-01 2.5075732220132735e-02 0.0000000000000000e+00  9.1186241876624741e-01 -1.6104666789061400e-02 0.0000000000000000e+00  9.9818150234515579e-01 -3.3263307800285781e-02 0.0000000000000000e+00  9.7543131054362264e-01 -2.3666799081763414e-03 0.0000000000000000e+00  9.6497017460518875e-01 -1.2262323189535197e-04 0.0000000000000000e+00  9.7405406338766087e-01 -2.3940091390308378e-05 0.0000000000000000e+00  9.6203814316858083e-01 1.8326471094840858e-04 0.0000000000000000e+00  9.6129255436641547e-01 -2.1746868120904619e-02 0.0000000000000000e+00  8.9514234864682329e-01 -3.9135471767274298e-02 0.0000000000000000e+00  6.5624939849039765e-01 7.2620039270711313e-07 0.0000000000000000e+00  2.2704704227191059e+00 -1.8419912460064003e-01 0.0000000000000000e+00  1.9913560092050231e+00 -9.5308946016580631e-02 0.0000000000000000e+00  1.1606323278889363e+00 2.9438467551642766e-01 0.0000000000000000e+00  1.9592567730856036e+00 2.9146223248282516e-01 0.0000000000000000e+00  1.0117087902934512e+00 -1.0230425210932016e-01 0.0000000000000000e+00  9.5063338721930757e-01 -3.9365209995036350e-04 0.0000000000000000e+00  1.7455076855279970e+00 1.9898140736469894e-01 0.0000000000000000e+00  9.7501589648028197e-01 -7.4617605754726923e-04 0.0000000000000000e+00  9.7413910403259940e-01 -1.0572062598848926e-04 0.0000000000000000e+00  9.7435436262192077e-01 -1.9284067218370410e-04 0.0000000000000000e+00  9.7404267463385330e-01 -1.9851706503157027e-05 0.0000000000000000e+00  9.7421870763157103e-01 6.5475067577986724e-05 0.0000000000000000e+00  9.7417331228675053e-01 8.4653109765377090e-05 0.0000000000000000e+00  1.8819699186521461e+00 -1.7651385662612940e-01 0.0000000000000000e+00  9.5387637871742004e-01 -4.7066516845533371e-05 0.0000000000000000e+00  1.3064756629795020e+00 1.7457400044682808e-01 0.0000000000000000e+00  9.1783402321900809e-01 2.7998935791413432e-01 0.0000000000000000e+00  2.0733744858459526e+00 2.9461095167878665e-01 0.0000000000000000e+00  1.8877032816474832e+00 3.0640721798296994e-01 0.0000000000000000e+00  9.4443451849640003e-01 1.0376697336524635e-01 0.0000000000000000e+00  1.5108169624628578e+00 -2.4780555297051166e-01 0.0000000000000000e+00  9.7393724797707393e-01 -1.2748998069102678e-04 0.0000000000000000e+00  1.2229542046251960e+00 1.9213376212589037e-01 0.0000000000000000e+00  9.6285638527180140e-01 -4.3438096311461714e-04 0.0000000000000000e+00  9.7081941116535675e-01 -1.0532606978870247e-03 0.0000000000000000e+00  9.7147441896130804e-01 -3.5319009430009123e-03 0.0000000000000000e+00  9.7403647871836885e-01 5.1363367229410708e-05 0.0000000000000000e+00  9.7408746559920445e-01 -5.9750652432821950e-05 0.0000000000000000e+00  9.7403761836803771e-01 -5.4146008585835940e-05 0.0000000000000000e+00  9.7341340264193876e-01 -4.7737562495253871e-04 0.0000000000000000e+00  9.1755235361548981e-01 -7.4426614988201621e-05 0.0000000000000000e+00  9.1636605060234477e-01 -4.2796572306679197e-04 0.0000000000000000e+00  9.1924859319115626e-01 -7.9087068154098661e-03 0.0000000000000000e+00  9.7405532380988047e-01 -3.8477932421085612e-05 0.0000000000000000e+00  9.3316854859858045e-01 -4.6612945501612961e-04 0.0000000000000000e+00  9.7404089543401595e-01 -1.8313463511691230e-05 0.0000000000000000e+00  9.7412429585445548e-01 2.5730092755989910e-05 0.0000000000000000e+00  9.7613343438767386e-01 -6.0829866053671664e-03 0.0000000000000000e+00  9.7404462416098092e-01 -1.0256257745114549e-05 0.0000000000000000e+00  9.7397194912074314e-01 -7.1674191902284027e-05 0.0000000000000000e+00  8.9468768274608146e-01 5.8667643458204944e-04 0.0000000000000000e+00  9.8067977345921908e-01 -2.7512700215869025e-03 0.0000000000000000e+00  9.4933614793182663e-01 3.8457933965652818e-04 0.0000000000000000e+00  7.3729150096124119e-01 -7.9193749836485902e-02 0.0000000000000000e+00  9.1328479785707239e-01 -5.6044883702549737e-04 0.0000000000000000e+00  1.5466442176804944e+00 5.1317518910164084e-01 0.0000000000000000e+00  1.0299421897278529e+00 2.0019604026561749e-01 0.0000000000000000e+00  9.4022408494539322e-01 8.1894242785340019e-04 0.0000000000000000e+00  2.3126026177730634e+00 5.0551473293865647e-02 0.0000000000000000e+00  1.4278697198109165e+00 -5.7005653327641326e-01 0.0000000000000000e+00  1.5236067848992547e+00 4.4537095401898305e-02 0.0000000000000000e+00  9.3236069778820851e-01 4.5283567516692688e-04 0.0000000000000000e+00  9.8248093451114982e-01 -7.5290240961100440e-03 0.0000000000000000e+00  9.4794713217363968e-01 1.1128532033282352e-04 0.0000000000000000e+00  9.7672286634098560e-01 -1.9080203164065111e-03 0.0000000000000000e+00  8.6267227692451798e-01 -1.5883729585878492e-01 0.0000000000000000e+00  1.4062549719788404e+00 3.3602239973004224e-06 0.0000000000000000e+00  9.7412472925795912e-01 2.2211197682092505e-05 0.0000000000000000e+00  9.4058745363002283e-01 -1.0092431721941092e-03 0.0000000000000000e+00  1.4062509001260375e+00 3.2066864588600247e-06 0.0000000000000000e+00  9.4110601358637558e-01 5.1719570254947348e-04 0.0000000000000000e+00  9.5831735432386733e-01 3.4401265188992954e-02 0.0000000000000000e+00  8.9588494019197740e-01 2.7310512191047217e-03 0.0000000000000000e+00  9.7412199159844504e-01 -1.8402771684900036e-05 0.0000000000000000e+00  7.2486401269924494e-01 1.0924760385046187e-01 0.0000000000000000e+00  9.7409310498465040e-01 4.3738109965557107e-05 0.0000000000000000e+00  9.3215894884966699e-01 -2.1950145756626053e-04 0.0000000000000000e+00  8.5865612863840834e-01 -2.3159644505209832e-04 0.0000000000000000e+00  9.7380067179440888e-01 -2.0432643786296822e-04 0.0000000000000000e+00  8.5585365937374547e-01 -8.7564946453663739e-04 0.0000000000000000e+00  9.1678467298278288e-01 -2.0258497937974