<?xml version="1.0"?>
<VTKFile type="UnstructuredGrid"  version="0.1"  >
<UnstructuredGrid>
<Piece  NumberOfPoints="2362" NumberOfCells="4391">
<Points>
<DataArray  type="Float64"  NumberOfComponents="3"  format="ascii">0 0.41 0  0 0 0  2.2 0 0  2.2 0.41 0  0.2404508497187474 0.2293892626146237 0  0.25 0.2 0  0.2404508497187474 0.1706107373853764 0  0.2154508497187474 0.1524471741852423 0  0.1845491502812526 0.1524471741852423 0  0.1595491502812526 0.1706107373853764 0  0.15 0.2 0  0.1595491502812526 0.2293892626146237 0  0.1845491502812527 0.2475528258147577 0  0.2154508497187474 0.2475528258147577 0  0.5951056516295153 0.2309016994374948 0  0.6 0.2 0  0.5951056516295153 0.1690983005625052 0  0.5809016994374947 0.1412214747707527 0  0.5587785252292473 0.1190983005625053 0  0.5309016994374948 0.1048943483704846 0  0.5 0.1 0  0.4690983005625052 0.1048943483704847 0  0.4412214747707527 0.1190983005625053 0  0.4190983005625052 0.1412214747707527 0  0.4048943483704846 0.1690983005625053 0  0.4 0.2 0  0.4048943483704847 0.2309016994374948 0  0.4190983005625052 0.2587785252292473 0  0.4412214747707527 0.2809016994374948 0  0.4690983005625053 0.2951056516295154 0  0.5 0.3 0  0.5309016994374948 0.2951056516295154 0  0.5587785252292473 0.2809016994374948 0  0.5809016994374947 0.2587785252292473 0  1.1 0 0  0 0.205 0  1.1 0.41 0  0.55 0 0  0.55 0.41 0  0.275 0 0  0.275 0.41 0  0.4125 0 0  0.4125 0.41 0  1.65 0.41 0  1.65 0 0  1.375 0 0  1.375 0.41 0  1.925 0 0  1.925 0.41 0  0.8250000000000001 0 0  0.8250000000000001 0.41 0  1.5125 0.205 0  1.7875 0.205 0  0.9625000000000001 0.205 0  1.2375 0.205 0  2.2 0.205 0  1.99375 0.2152743902439024 0  0.7815916808149406 0.1777281409168082 0  2.0625 0 0  0.6875 0.41 0  2.0625 0.41 0  2.2 0.3075 0  0.6875 0 0  1.7875 0.41 0  1.375 0.1486128048780488 0  1.5125 0 0  1.7875 0 0  1.5125 0.41 0  0.9625000000000001 0 0  0.9625000000000001 0.41 0  0.1375 0 0  0.1375 0.41 0  1.2375 0 0  1.1 0.1486128048780488 0  1.2375 0.41 0  1.65 0.1486128048780487 0  1.676715909090909 0.2793064024390244 0  1.126715909090909 0.2793064024390244 0  1.348284090909091 0.2793064024390244 0  0.7111837382351637 0.2844002487563727 0  1.894702181800738 0.1282910975492754 0  2.092797818199262 0.1282910975492754 0  1.85625 0.3075 0  0.89375 0.3075 0  0.89375 0.1025 0  0 0.3075 0  0 0.1025 0  2.099172119769978 0.25625 0  1.002356446954348 0.1010393851523063 0  1.99375 0.08395950269330846 0  1.459960956013612 0.3075 0  1.569025960719943 0.2986889805672169 0  1.03125 0.3278689922742084 0  0.3192727088781826 0.3079212096616675 0  1.959375 0.3126371951219512 0  1.749222215368287 0.1025 0  1.275777784631713 0.1025 0  2.2 0.1025 0  1.225938124459196 0.3075 0  1.550777784631713 0.1025 0  1.44375 0.07430640243902442 0  1.16875 0.07430640243902439 0  0.3437500000000001 0.07397709473011121 0  0.6911993143367559 0.1118123074367635 0  0.8057215702682121 0.2702269632945269 0  1.899250267340833 0.2229966846119207 0  0.8720458404074704 0.1913640704584042 0  0.8032958404074703 0.0888640704584041 0  0.6337831477789919 0.3348380330536306 0  0.1020898364287272 0.3140258291809757 0  1.766482954545455 0.2934032012195123 0  1.051658316544432 0.2265720188842194 0  0.2 0.3400647632937836 0  1.421109702350723 0.2261157654379721 0  0.61875 0 0  0.6878950265164463 0.199645915719726 0  0.098916018031319 0.09171660955420841 0  2.13125 0 0  2.118919042110979 0.3422084711244843 0  1.30625 0.41 0  0.20625 0 0  1.597888256393107 0.2173787389261347 0  0.7562500000000001 0.41 0  1.829299675393195 0.07400700849299596 0  1.71875 0.41 0  0.3225835293916391 0.1601701968669111 0  0.2606666398188512 0.0822552582932282 0  1.16875 0.41 0  2.038220665644273 0.332420740103091 0  0.176193934632343 0.0734896648625108 0  0.07390688010811153 0.1697064032433452 0  0.05452951551825875 0.25625 0  1.452769549894695 0.1548122580621249 0  1.369219062229598 0.07430640243902442 0  1.30625 0 0  1.075792183788687 0.07430640243902439 0  1.720943423819132 0.1714577452753128 0  1.157188124459196 0.205 0  1.304056576180868 0.1714577452753128 0  1.67579304192913 0.07430640243902437 0  0.7671326277666176 0.3352102652308781 0  0.3304630541488595 0.2342593631089261 0  1.209670467133757 0.136210026696477 0  0.7562500000000001 0 0  1.58125 0 0  0.9945036230615469 0.267761374151655 0  0.4812500000000001 0.41 0  0.06875000000000001 0.41 0  0 0.35875 0  0.9595378427479357 0.3376804103519943 0  0.34375 0.41 0  0.3897250743675729 0.3371889980614159 0  1.58125 0.41 0  1.631724228912893 0.3381867502687533 0  1.825608881788174 0.14499488549201 0  1.85625 0 0  1.44375 0 0  1.44375 0.41 0  1.85625 0.41 0  2.13125 0.41 0  0.89375 0 0  0.89375 0.41 0  0.20625 0.41 0  0.34375 0 0  0.4812500000000001 0 0  0.06875000000000001 0 0  0.61875 0.41 0  1.16875 0 0  1.03125 0.41 0  1.03125 0 0  1.71875 0 0  1.99375 0 0  1.99375 0.41 0  1.340625 0.3489494290853124 0  1.134375 0.3489494290853123 0  1.700180620188976 0.3438659752031281 0  1.033412357328477 0.1612902025713048 0  2.135782184673599 0.07126652247502523 0  1.668441847249787 0.2129203728327609 0  1.295782514339747 0.2378437748815763 0  0.6228574598132852 0.07671664390624158 0  1.409375 0.3520314716057996 0  2.129248544730567 0.1906135162504124 0  2.060771381434487 0.1989445750470348 0  2.013252586573865 0.1496169464686054 0  1.942766402200229 0.1734448904596831 0  1.895522487186454 0.06076163953489683 0  2.069553871656643 0.06605731020975725 0  1.274680914880868 0.3520219391081363 0  0.835055311278239 0.3424380136622334 0  0.7401021045332367 0.06543430142341211 0  1.614713220494657 0.09473434380863296 0  0.7520823699979313 0.2348229030472582 0  0.7043417970120415 0.3481429366232311 0  0.6546643048326494 0.2543538116156937 0  1.72990325744076 0.2380068107952482 0  1.356580098625191 0.2120393231351682 0  2.034370752044885 0.2668681600792073 0  1.51768709249349 0.3426260931494756 0  1.561883724969884 0.1650446847858835 0  0.2653439943239876 0.345171903972789 0  0.8330496081674507 0.1432136774486613 0  0.9281250000000001 0.05125000000000001 0  0.9330537010450736 0.2595558360668175 0  1.197344062229598 0.2523725417393646 0  1.804085235518364 0.3468178408964637 0  1.817887819205233 0.2589243285818559 0  1.905897727272727 0.3485060975609756 0  0.9485678863664097 0.1400383079249692 0  0.859375 0.05125 0  0 0.05125 0  0.4074403514301243 0.06423252630440013 0  0.5245798370136819 0.3551909831755992 0  0.7505241288352321 0.1253952068674773 0  0.2619923711861096 0.2853251789076993 0  0.8650169191207625 0.2527737409589524 0  1.192836486056382 0.3562350748565544 0  0.446875 0.3592802242693868 0  1.28257088594801 0.2944411014911587 0  1.474860187679412 0.2504218616229368 0  1.406767003493824 0.2829282258560709 0  1.845656689180403 0.1998310418452388 0  2.144958525570388 0.2909790873294231 0  2.2 0.15375 0  0.5843750000000001 0.3640402812892887 0  1.57794966442982 0.3540357145964566 0  0.6847665055715617 0.05605778745887328 0  0.637863756942103 0.1315837975700875 0  0.515625 0.04531250000000001 0  0.5718106469538725 0.0522410511374206 0  0.0496154796471391 0.333125 0  0.3662446794185922 0.2773760459259736 0  1.508991196088596 0.1421783375065625 0  0.09776612425612034 0.2204896805326566 0  1.50436820029908 0.06143401634903343 0  1.223857000523521 0.08235548624535324 0  1.153316824384777 0.1289850171317838 0  2.148922302309752 0.1258841779285271 0  1.621993280276081 0.2841214267927899 0  1.550118654119087 0.2461998729100966 0  1.327182649291491 0.1216967252533594 0  1.753125 0.04556020050186112 0  1.271875 0.04556020050186116 0  0.9824282234771738 0.05051969257615315 0  1.94956388244759 0.1180512551534177 0  1.949997712993411 0.04965831614304109 0  1.771961817615021 0.1530278789497521 0  1.909246823951428 0.2812757146784527 0  1.106872424375684 0.2277674570637181 0  1.948575539857022 0.2445328248721197 0  1.697271520964565 0.1233917627620729 0  1.065625 0.3689344961371042 0  1.085849084308977 0.3170853572226867 0  1.577403511714593 0.05463601888079143 0  0.05622663515370135 0.05493816910862376 0  1.751571320346033 0.3651102912045228 0  0.1583785085108421 0.2994699345738728 0  0.1455283439499995 0.3542795598723423 0  2.2 0.35875 0  0.4605652621775715 0.05075477778725031 0  0.1455852234589313 0.1166494778469164 0  0.3170871189130322 0.3624193665482365 0  1.466879772203159 0.3611261772912453 0  1.045297740100467 0.2779948725912803 0  1.990280163552011 0.3564754268533217 0  1.17471064520912 0.2990917256188288 0  0.8219886595034398 0.2165866596606327 0  0 0.25625 0  2.2 0.25625 0  2.2 0.05125 0  0 0.15375 0  1.853978576207987 0.35875 0  0.884510791938353 0.35875 0  1.000341183849677 0.3689344961371042 0  1.515638456102889 0.2882700110184686 0  0.09048297387599738 0.3637717362208066 0  2.150453692751374 0.2387066338105111 0  1.323782677156475 0.04897634338873398 0  1.409375 0.03715320121951221 0  1.406484531114799 0.1087852750766809 0  1.134375 0.03715320121951219 0  1.627401732573545 0.04552157221025036 0  0.2990651506063402 0.04656992046979862 0  0.3658138865510369 0.1250908110711949 0  2.045405893604797 0.1105340662939892 0  1.255408269734577 0.1577307500159216 0  0.7848198562432198 0.04176011905165711 0  2.028125 0.03707597992059326 0  0.04420832937638274 0.128125 0  0.1197849154434487 0.2663398672460083 0  0.2773440361767429 0.1325614896367195 0  1.248258025468107 0.2565907092181813 0  0.1300647302703173 0.0508462728378621 0  1.203125 0.03661323374043041 0  0.221416587416242 0.04909393590284095 0  2.072662025974815 0.2975086504196739 0  0.7309361959118756 0.1724117473133809 0  1.049057507569546 0.1150968098952652 0  1.029426696124534 0.0611707995214115 0  0.7592092911094858 0.2823604815974596 0  1.113520643506534 0.1031115419092917 0  1.887722846421017 0.1760882698830035 0  0.7976278545651526 0.3713969152554929 0  0.8476376957455005 0.2968044376629371 0  1.472640588990488 0.1118278026240017 0  1.865937103925594 0.2604137786483804 0  1.463913572748262 0.2030442564990043 0  0.2154602920799496 0.2951006307678045 0  1.376426316059077 0.3186741374914345 0  0.928125000000
[...]
<PointData  Vectors="f_37"> 
<DataArray  type="Float64"  Name="f_37"  NumberOfComponents="3" format="ascii">-5.9735943911244905e-07 -2.9435949458253575e-07 0.0000000000000000e+00  -1.6625616327589378e-07 4.7876303508461365e-07 0.0000000000000000e+00  -3.4193473843430902e-06 2.6082916361403034e-08 0.0000000000000000e+00  -3.3678855757167587e-06 6.9996321730221975e-09 0.0000000000000000e+00  3.3605700943608855e-05 -4.5058259945621527e-05 0.0000000000000000e+00  6.0682648788289219e-05 3.1774842950479117e-05 0.0000000000000000e+00  4.3362590924807177e-05 5.0207160757746432e-05 0.0000000000000000e+00  -5.9487524912327683e-06 -1.6789443516271907e-05 0.0000000000000000e+00  -1.7702935352361585e-05 -2.4684107253933558e-05 0.0000000000000000e+00  -2.4587967961757765e-05 9.5932153413158641e-06 0.0000000000000000e+00  -1.8194738149604830e-06 1.3028983405168934e-05 0.0000000000000000e+00  4.3978418643614314e-06 1.1637649007513080e-06 0.0000000000000000e+00  -1.1155762526326121e-05 -2.3557830346112237e-06 0.0000000000000000e+00  -1.5615886815475592e-05 -9.1744984479695960e-08 0.0000000000000000e+00  3.4276727321257591e-05 -5.5039058419035627e-05 0.0000000000000000e+00  -1.5825155522196485e-01 5.3265061647187167e-02 0.0000000000000000e+00  1.6044458072319230e-05 3.5525252771025875e-06 0.0000000000000000e+00  -1.1101038295532419e-05 -5.7331000967020172e-06 0.0000000000000000e+00  -3.7361865951805092e-05 1.1831752372279111e-05 0.0000000000000000e+00  -5.5309951062861585e-05 3.3542134741730020e-05 0.0000000000000000e+00  2.4540790841438445e+00 1.1110567866363295e+00 0.0000000000000000e+00  1.2700209611368152e-04 1.0032061861032994e-04 0.0000000000000000e+00  5.4214977813416939e-05 -9.8526713315865181e-05 0.0000000000000000e+00  -8.2691666426969773e-05 5.7322545014713405e-05 0.0000000000000000e+00  -5.5266008690789878e-05 3.6554917971909203e-05 0.0000000000000000e+00  1.3363997996209570e-01 -1.7311589318503937e-01 0.0000000000000000e+00  -5.8157112102753850e-05 -6.8778042248255741e-05 0.0000000000000000e+00  -4.1559886047576801e-05 6.3464526080087060e-06 0.0000000000000000e+00  4.9413005836673134e-06 3.6138634220560311e-05 0.0000000000000000e+00  2.0985301828200227e-05 2.4755443301503425e-05 0.0000000000000000e+00  1.3715134627397436e+00 -5.4834435364998413e-01 0.0000000000000000e+00  -6.9952579985199004e-06 1.5220472919197018e-05 0.0000000000000000e+00  1.5899776122317894e-06 7.8968606719778418e-06 0.0000000000000000e+00  7.7606312547502069e-06 -4.4077937344611094e-05 0.0000000000000000e+00  -4.9500027318432026e-06 -6.7600723438086471e-08 0.0000000000000000e+00  1.5000024871282363e+00 3.2656662995800500e-06 0.0000000000000000e+00  -2.6801140068648598e-06 2.1656644667328435e-08 0.0000000000000000e+00  -3.7065748489437942e-06 2.7026213920303939e-06 0.0000000000000000e+00  5.2972917057172802e-06 1.0506973793050963e-06 0.0000000000000000e+00  -2.2644508267545482e-06 7.9247895072831047e-06 0.0000000000000000e+00  -1.0627105158618106e-05 -6.3506936273423486e-06 0.0000000000000000e+00  8.9687029822822824e-06 -1.4019078826592899e-06 0.0000000000000000e+00  -5.0272126803069946e-06 1.8520673507989536e-06 0.0000000000000000e+00  -3.4397075576258477e-06 -7.2541184258722435e-08 0.0000000000000000e+00  -3.8541037029533773e-06 8.8302712581954748e-08 0.0000000000000000e+00  -2.3322557851190637e-06 -6.2120298995300677e-08 0.0000000000000000e+00  -1.6720987689830303e-06 2.6545734633220204e-07 0.0000000000000000e+00  -2.4261353169421473e-06 9.1132676103948587e-08 0.0000000000000000e+00  -4.1921813102897797e-06 1.7425838025820246e-07 0.0000000000000000e+00  -1.3563417542912557e-05 -1.7229723162227761e-07 0.0000000000000000e+00  -9.1019616573375828e-06 -9.5304587694622685e-08 0.0000000000000000e+00  8.6238412256033548e-01 -8.8681143115732834e-05 0.0000000000000000e+00  8.6237641607564164e-01 -3.7649744330918751e-05 0.0000000000000000e+00  8.6000344603775847e-01 -1.0916244917837216e-02 0.0000000000000000e+00  8.6243331577239768e-01 -9.5101799170458278e-04 0.0000000000000000e+00  8.6269859797641357e-01 7.1124667686143481e-05 0.0000000000000000e+00  8.6239472131863881e-01 1.6097945791020830e-05 0.0000000000000000e+00  7.6156191889574920e-01 -2.2455984389004261e-03 0.0000000000000000e+00  -7.0019496780672517e-06 -3.9143818187093423e-08 0.0000000000000000e+00  1.0075799788860479e-05 -1.5310154756242389e-06 0.0000000000000000e+00  -5.3731464118345275e-06 1.7509389912574582e-07 0.0000000000000000e+00  8.6232248811286027e-01 -4.8672839509346480e-04 0.0000000000000000e+00  -2.2859597472411778e-05 2.6039803712174491e-06 0.0000000000000000e+00  -3.7084709471391649e-06 -2.9420332311871246e-08 0.0000000000000000e+00  8.6230114584895257e-01 -2.6187788109293238e-04 0.0000000000000000e+00  -7.5659615464572361e-07 -4.2627156982527506e-08 0.0000000000000000e+00  -4.2618679378782688e-06 6.9143297870915178e-08 0.0000000000000000e+00  -2.5838291284179501e-06 4.8934475100715542e-08 0.0000000000000000e+00  -5.2300120816537680e-06 1.9013658829298739e-07 0.0000000000000000e+00  -6.9362520876687117e-06 1.5872012076329708e-08 0.0000000000000000e+00  1.8689282834603604e-05 -9.6643159025576283e-06 0.0000000000000000e+00  1.7960441975518230e-05 7.8122041172271377e-06 0.0000000000000000e+00  -4.2945719573400746e-06 2.0042971311369085e-07 0.0000000000000000e+00  8.6078912914038985e-01 -2.7715288267179988e-03 0.0000000000000000e+00  -4.7457657752187077e-06 -7.8166965816558363e-08 0.0000000000000000e+00  8.6232065271315472e-01 -3.3712603305705258e-05 0.0000000000000000e+00  8.6236603728075456e-01 -8.7113019343627859e-05 0.0000000000000000e+00  8.6395657295417960e-01 -2.1431940290542930e-03 0.0000000000000000e+00  8.6262331941762704e-01 -1.9806160698992355e-04 0.0000000000000000e+00  1.0347413753745225e+00 -4.1730744278122811e-01 0.0000000000000000e+00  8.6240154552739179e-01 -9.9896530205666681e-06 0.0000000000000000e+00  8.6236649422566647e-01 1.0958828530963427e-04 0.0000000000000000e+00  8.6235974526460568e-01 -1.9065592917429680e-05 0.0000000000000000e+00  8.8327273326439126e-01 -2.0579916793213526e-02 0.0000000000000000e+00  8.5152808044525141e-01 -2.9539027819196332e-03 0.0000000000000000e+00  1.1249980374290760e+00 1.7300154439365958e-06 0.0000000000000000e+00  1.1250037203947201e+00 5.9670075533478853e-07 0.0000000000000000e+00  8.6244921881031911e-01 3.9064351270601742e-05 0.0000000000000000e+00  8.5706475051359676e-01 -3.8692425173874850e-03 0.0000000000000000e+00  8.6228128464267462e-01 1.3144657016940384e-04 0.0000000000000000e+00  8.6233546565040942e-01 -1.5741398634355360e-05 0.0000000000000000e+00  8.6237301052488913e-01 -7.4165213898651089e-05 0.0000000000000000e+00  8.6750324629861730e-01 -3.0105518383842299e-03 0.0000000000000000e+00  1.5413353346455654e+00 -7.6475051993459608e-02 0.0000000000000000e+00  8.6226304409418719e-01 8.4127790911218682e-05 0.0000000000000000e+00  8.6221802483261689e-01 -2.5640806732757882e-05 0.0000000000000000e+00  8.6180603937699074e-01 -2.6723901005716816e-04 0.0000000000000000e+00  8.6229719776590052e-01 5.9716505188136810e-04 0.0000000000000000e+00  8.6325659165282831e-01 -6.9130996492199027e-04 0.0000000000000000e+00  8.6234253872975353e-01 -2.9333241000711560e-05 0.0000000000000000e+00  8.6163412107344650e-01 -2.9888550335178070e-04 0.0000000000000000e+00  8.6015948462531566e-01 -8.6548336214845424e-04 0.0000000000000000e+00  1.6031865264599314e+00 -4.6372286851949773e-02 0.0000000000000000e+00  1.0474494827066123e+00 3.5490216361405635e-01 0.0000000000000000e+00  8.7568322907710583e-01 -9.5360107757014062e-02 0.0000000000000000e+00  8.6236398193085373e-01 1.9219452042355398e-05 0.0000000000000000e+00  8.4450575925991245e-01 -2.0291967597359465e-02 0.0000000000000000e+00  8.6470069973395125e-01 2.3359314263463188e-02 0.0000000000000000e+00  1.6508335094366391e+00 -3.4293476695626507e-01 0.0000000000000000e+00  1.1908052994073899e+00 2.5014477204068170e-01 0.0000000000000000e+00  8.6248249702412816e-01 2.4127086636076234e-05 0.0000000000000000e+00  8.6300216422196319e-01 -5.0640746846319822e-03 0.0000000000000000e+00  1.4025885453777405e+00 2.3306446420574858e-01 0.0000000000000000e+00  8.6240575501398831e-01 -1.4742758778123880e-04 0.0000000000000000e+00  1.6979941664285571e-06 8.8420618653689843e-07 0.0000000000000000e+00  1.3358007743777339e-01 -9.1089593137317959e-02 0.0000000000000000e+00  1.1485175057120789e+00 -2.5481654073258875e-01 0.0000000000000000e+00  -4.9758041440046312e-06 -1.6140641015265850e-08 0.0000000000000000e+00  8.6046454406252315e-01 4.7781391651403746e-04 0.0000000000000000e+00  -6.2613701702007806e-06 -1.1601657191861285e-07 0.0000000000000000e+00  2.6254845233468672e-05 -3.8395541732045899e-06 0.0000000000000000e+00  8.6235944898936823e-01 -5.3232341773534185e-05 0.0000000000000000e+00  -2.1856841421144970e-05 5.2369655057140794e-07 0.0000000000000000e+00  8.6193674459589686e-01 -1.4560904132762228e-04 0.0000000000000000e+00  -8.0219475361392063e-06 -1.9065056484761725e-07 0.0000000000000000e+00  2.0269901176843647e-01 2.4523634931627278e-01 0.0000000000000000e+00  1.8127756966142015e+00 -2.2790004879810502e-01 0.0000000000000000e+00  -4.9572582931077758e-06 1.1195803282540966e-07 0.0000000000000000e+00  8.6245648356887217e-01 -1.0793426612911960e-04 0.0000000000000000e+00  1.4042464665248202e+00 -3.1969305325702108e-01 0.0000000000000000e+00  1.3372825074949573e+00 -1.2049228558641338e-01 0.0000000000000000e+00  1.3730736597971389e+00 1.2705341719656130e-01 0.0000000000000000e+00  8.6228928849111386e-01 -1.3044385478151548e-04 0.0000000000000000e+00  8.6111355698505754e-01 -4.5520294114086011e-04 0.0000000000000000e+00  -1.3804164957746927e-06 -1.7111102844663449e-07 0.0000000000000000e+00  8.5790043014913775e-01 -1.9746952088233547e-03 0.0000000000000000e+00  8.6233567025163238e-01 -3.0042208545827625e-05 0.0000000000000000e+00  8.6235199714710675e-01 -1.9907276106234609e-03 0.0000000000000000e+00  8.6231140038109200e-01 -4.6422426126093265e-04 0.0000000000000000e+00  8.6131677318192867e-01 3.0966332925774522e-05 0.0000000000000000e+00  1.0240332576535700e+00 -7.1269781582030664e-02 0.0000000000000000e+00  2.9433375741820750e-01 -5.4520672639605261e-01 0.0000000000000000e+00  8.6159104103434558e-01 -9.5741748142092809e-04 0.0000000000000000e+00  -2.1153510377982179e-05 -1.3387774547712222e-06 0.0000000000000000e+00  -1.0686218137745909e-06 -2.9698907305200126e-08 0.0000000000000000e+00  8.6634818020468018e-01 -8.1695482133231512e-03 0.0000000000000000e+00  -7.3093995521436804e-06 1.3184171117209725e-06 0.0000000000000000e+00  -4.2854614993268184e-06 -1.1951390592158332e-06 0.0000000000000000e+00  6.5625171550975991e-01 2.6632848934112950e-07 0.0000000000000000e+00  8.7383276675155397e-01 -5.6041480621155876e-03 0.0000000000000000e+00  -3.7298959334553048e-06 -1.5758204782835540e-06 0.0000000000000000e+00  1.4664795512832909e+00 1.7712508582637312e-01 0.0000000000000000e+00  -5.1254678873925705e-06 2.1084337579615262e-07 0.0000000000000000e+00  8.6113886440382992e-01 5.8049543171055868e-04 0.0000000000000000e+00  8.6239607948844099e-01 -3.8057333659136824e-05 0.0000000000000000e+00  -4.5815807585990973e-06 2.2342383678090860e-07 0.0000000000000000e+00  -8.3294308616964181e-06 1.1810617381035976e-07 0.0000000000000000e+00  -2.8623394092859217e-06 -1.2101050823488916e-07 0.0000000000000000e+00  -6.1632686310637089e-06 -2.0673692916844909e-09 0.0000000000000000e+00  -5.9943782656190853e-06 1.8967119281494415e-08 0.0000000000000000e+00  -7.4144556781406408e-06 -1.3637120168923821e-07 0.0000000000000000e+00  -6.1011688389360112e-06 -1.7932127970116982e-07 0.0000000000000000e+00  1.5207854928421073e-05 1.5171625360744484e-06 0.0000000000000000e+00  2.1023227285071960e-05 2.9675455448036225e-06 0.0000000000000000e+00  2.9787506793920921e-06 7.4801116637071584e-06 0.0000000000000000e+00  -6.2946097187721931e-06 1.0886920568740993e-06 0.0000000000000000e+00  1.6129481659383104e-05 -1.8277079030928592e-06 0.0000000000000000e+00  -2.5584903885558446e-06 -1.0059377779124870e-07 0.0000000000000000e+00  -6.7615602124462346e-06 -1.5355987257978851e-07 0.0000000000000000e+00  -5.8711880650473610e-06 -3.2548429682219703e-07 0.0000000000000000e+00  -5.5294837027046151e-06 -9.2568588208975165e-08 0.0000000000000000e+00  -3.8078917133454288e-06 -7.7931640912199709e-08 0.0000000000000000e+00  -8.6701827543425667e-06 -2.6054470270653965e-07 0.0000000000000000e+00  8.5830531589844794e-01 6.7795737184591059e-04 0.0000000000000000e+00  8.6252352524498022e-01 -6.8116858842176098e-04 0.0000000000000000e+00  8.6105773109327266e-01 -4.7247803539886697e-04 0.0000000000000000e+00  8.5990636676571641e-01 -5.0117885509193792e-03 0.0000000000000000e+00  8.6110400951262756e-01 -3.7202636520142665e-05 0.0000000000000000e+00  8.6236425853345988e-01 -5.6860971753156310e-05 0.0000000000000000e+00  8.6262893133099749e-01 -5.2835260764443948e-04 0.0000000000000000e+00  1.5444924099653297e+00 2.7879918099910134e-01 0.0000000000000000e+00  8.5886149911154031e-01 5.4224396071040314e-04 0.0000000000000000e+00  8.6247666054823879e-01 8.4218479326829610e-05 0.0000000000000000e+00  8.6238927632771867e-01 3.2063346727852993e-05 0.0000000000000000e+00  8.6235102884645443e-01 6.6837881656169537e-05 0.0000000000000000e+00  8.6236595880188316e-01 2.8786700180013343e-05 0.0000000000000000e+00  8.5902327442076931e-01 -2.5557739308961838e-05 0.0000000000000000e+00  8.6101329337408561e-01 -4.4998315148275787e-05 0.0000000000000000e+00  8.6011388141080658e-01 -4.2926209239605524e-04 0.0000000000000000e+00  9.2022289828001980e-01 -2.1583943347934700e-02 0.0000000000000000e+00  9.6533039193029735e-01 3.5957211926691150e-02 0.0000000000000000e+00  8.6217622622300505e-01 -1.7162160722888748e-04 0.0000000000000000e+00  7.3587008192243264e-01 -1.8278959842855083e-01 0.0000000000000000e+00  1.2753961204333568e+00 -1.3730534840839309e-01 0.0000000000000000e+00  5.4144032607669434e-01 -4.9286697236904869e-01 0.0000000000000000e+00  8.6241382511654641e-01 -4.5405103953931898e-05 0.0000000000000000e+00  8.6248029933661607e-01 -2.9603603727064074e-04 0.0000000000000000e+00  8.6250304716765447e-01 1.9736418558645220e-06 0.0000000000000000e+00  8.6063994034636071e-01 -1.0469362312558379e-04 0.0000000000000000e+00  8.6232841021786211e-01 -6.2736540152096828e-05 0.0000000000000000e+00  1.3743577421093336e+00 2.1171629521542321e-01 0.0000000000000000e+00  8.3269220203112448e-01 3.2247727479373062e-03 0.0000000000000000e+00  8.4561066889523184e-01 -2.1799976630844558e-03 0.0000000000000000e+00  8.6708982638244880e-01 -1.6547937464124269e-02 0.0000000000000000e+00  8.6297928481640529e-01 -1.2890946846169349e-03 0.0000000000000000e+00  8.6022063149552674e-01 2.7845695018303897e-04 0.0000000000000000e+00  8.6233204321258361e-01 4.2047672486876448e-06 0.0000000000000000e+00  8.6034050827244457e-01 2.8114130544780057e-04 0.0000000000000000e+00  8.5495904742595141e-01 -7.1103098153418465e-03 0.0000000000000000e+00  8.4639644081570220e-01 -3.2562235166962018e-03 0.0000000000000000e+00  6.5624955257158590e-01 5.4523007643626297e-07 0.0000000000000000e+00  1.7684714442068032e+00 -2.3933051785997275e-01 0.0000000000000000e+00  1.8560503936248469e+00 -1.2903539357590918e-01 0.0000000000000000e+00  8.3271789704707466e-01 1.2727621114300622e-01 0.0000000000000000e+00  2.0014821922592518e+00 1.1117377647642683e-01 0.0000000000000000e+00  8.6358717029551479e-01 -3.8381176238706800e-02 0.0000000000000000e+00  8.5815084681885812e-01 3.0058751894730359e-05 0.0000000000000000e+00  1.7335073165202126e+00 1.4574540546561759e-01 0.0000000000000000e+00  8.6294443877499083e-01 -4.7196429646451609e-04 0.0000000000000000e+00  8.6236030523360396e-01 -7.8582683238982847e-05 0.0000000000000000e+00  8.6247559413554720e-01 -5.3306942392245634e-05 0.0000000000000000e+00  8.6234024690720190e-01 -4.4532570825733322e-06 0.0000000000000000e+00  8.6236498899455094e-01 -8.7362660708163739e-05 0.0000000000000000e+00  8.6274655115453802e-01 3.2368087537300902e-04 0.0000000000000000e+00  1.7363466177834919e+00 -2.1510932909267708e-01 0.0000000000000000e+00  8.5858987893782535e-01 -3.3447638652060659e-04 0.0000000000000000e+00  1.1575226698396315e+00 7.3376567766713335e-02 0.0000000000000000e+00  8.3984068632706677e-01 3.4531593155261586e-01 0.0000000000000000e+00  1.8521539816666504e+00 2.8948360115546812e-01 0.0000000000000000e+00  1.6664631128923062e+00 2.5250956908909772e-01 0.0000000000000000e+00  9.4206545291000388e-01 9.4290332633511151e-02 0.0000000000000000e+00  1.0293431403458757e+00 -5.7659811461316143e-02 0.0000000000000000e+00  8.6226627489978513e-01 -4.5073503749612852e-05 0.0000000000000000e+00  1.2229295049930631e+00 1.6212418475774179e-01 0.0000000000000000e+00  8.6056702824692188e-01 1.7401135209268577e-04 0.0000000000000000e+00  8.6106669770919886e-01 -4.5892820547722594e-04 0.0000000000000000e+00  8.6105202106383116e-01 -1.5836459510836262e-03 0.0000000000000000e+00  8.6238607955406532e-01 2.3650031655067226e-04 0.0000000000000000e+00  8.6240030997802297e-01 -3.1708935529141550e-05 0.0000000000000000e+00  8.6234947114818328e-01 -6.8597399795984859e-05 0.0000000000000000e+00  8.6214012809300844e-01 -2.7155574707422343e-04 0.0000000000000000e+00  8.4403672995582713e-01 -1.0314248688260617e-04 0.0000000000000000e+00  8.4306497369147992e-01 4.1922903819480070e-04 0.0000000000000000e+00  8.4442004931521220e-01 -2.5073290555872262e-03 0.0000000000000000e+00  8.6236530382203269e-01 1.4079851930571990e-05 0.0000000000000000e+00  8.4824201098304786e-01 -6.0128268719515936e-04 0.0000000000000000e+00  8.6238717544932597e-01 -1.2182959328526358e-05 0.0000000000000000e+00  8.6247401262558654e-01 3.0639112173057812e-05 0.0000000000000000e+00  8.6292165610408156e-01 -3.0817560830823762e-03 0.0000000000000000e+00  8.6237512661678628e-01 1.6231917874101809e-05 0.0000000000000000e+00  8.6231151936696460e-01 1.4146123754074030e-05 0.0000000000000000e+00  8.3386145428488645e-01 -8.0795698726602271e-04 0.0000000000000000e+00  8.6562060148336528e-01 -2.2341108959686830e-03 0.0000000000000000e+00  8.5618580676865275e-01 -4.7991665191945667e-04 0.0000000000000000e+00  7.3910652179837877e-01 -7.7128101182665762e-02 0.0000000000000000e+00  8.4187167075763547e-01 2.2692101628668583e-04 0.0000000000000000e+00  1.5418757186273289e+00 4.7471575383414893e-01 0.0000000000000000e+00  1.0269334490726005e+00 1.6877019709470759e-01 0.0000000000000000e+00  8.5242815655640691e-01 4.3023917124468374e-05 0.0000000000000000e+00  2.0712250992462913e+00 1.0517992308220534e-02 0.0000000000000000e+00  1.4660315864923659e+00 -5.7234055129701689e-01 0.0000000000000000e+00  1.4426348841648844e+00 3.3585142434851147e-02 0.0000000000000000e+00  8.5030648516419882e-01 3.6119250625177618e-05 0.0000000000000000e+00  8.6548364086889207e-01 -4.6271624970054713e-03 0.0000000000000000e+00  8.5577575110061377e-01 -4.3331424547485086e-04 0.0000000000000000e+00  8.6366970094754703e-01 -1.1593456821921094e-03 0.0000000000000000e+00  8.2421580179460308e-01 -4.9544504241976033e-02 0.0000000000000000e+00  1.4062548494920266e+00 3.3003728276865490e-06 0.0000000000000000e+00  8.6266467878501274e-01 -2.3829626480689430e-04 0.0000000000000000e+00  8.5277859465094663e-01 1.5987837388760020e-04 0.0000000000000000e+00  1.4062507345650821e+00 2.0332384363973046e-06 0.0000000000000000e+00  8.5426647474836670e-01 -4.5911821836714978e-04 0.0000000000000000e+00  8.8076814056985986e-01 -4.0055004442281616e-03 0.0000000000000000e+00  8.3753103814516783e-01 -2.3958577057070463e-04 0.0000000000000000e+00  8.6236972120114697e-01 -8.8771235221119974e-05 0.0000000000000000e+00  7.2681809665912533e-01 7.8828646515865533e-02 0.0000000000000000e+00  8.6248500176907217e-01 -2.1710237044750125e-05 0.0000000000000000e+00  8.5032615277108803e-01 -1.1714863381794099e-04 0.0000000000000000e+00  8.1185192469272460e-01 -3.8121514499278141e-04 0.0000000000000000e+00  8.6221347360477396e-01 -2.3805141098254772e-04 0.0000000000000000e+00  8.0990643252780059e-01 -6.2069121803746659e-04 0.0000000000